 Entering Gaussian System, Link 0=g16
 Initial command:
 /ichec/packages/gaussian/16c01/l1.exe "/scratch/global/Gau-82726.inp" -scrdir="/scratch/global/"
 Entering Link 1 = /ichec/packages/gaussian/16c01/l1.exe PID=     84253.
  
 Copyright (c) 1988-2019, Gaussian, Inc.  All Rights Reserved.
  
 This is part of the Gaussian(R) 16 program.  It is based on
 the Gaussian(R) 09 system (copyright 2009, Gaussian, Inc.),
 the Gaussian(R) 03 system (copyright 2003, Gaussian, Inc.),
 the Gaussian(R) 98 system (copyright 1998, Gaussian, Inc.),
 the Gaussian(R) 94 system (copyright 1995, Gaussian, Inc.),
 the Gaussian 92(TM) system (copyright 1992, Gaussian, Inc.),
 the Gaussian 90(TM) system (copyright 1990, Gaussian, Inc.),
 the Gaussian 88(TM) system (copyright 1988, Gaussian, Inc.),
 the Gaussian 86(TM) system (copyright 1986, Carnegie Mellon
 University), and the Gaussian 82(TM) system (copyright 1983,
 Carnegie Mellon University). Gaussian is a federally registered
 trademark of Gaussian, Inc.
  
 This software contains proprietary and confidential information,
 including trade secrets, belonging to Gaussian, Inc.
  
 This software is provided under written license and may be
 used, copied, transmitted, or stored only in accord with that
 written license.
  
 The following legend is applicable only to US Government
 contracts under FAR:
  
                    RESTRICTED RIGHTS LEGEND
  
 Use, reproduction and disclosure by the US Government is
 subject to restrictions as set forth in subparagraphs (a)
 and (c) of the Commercial Computer Software - Restricted
 Rights clause in FAR 52.227-19.
  
 Gaussian, Inc.
 340 Quinnipiac St., Bldg. 40, Wallingford CT 06492
  
  
 ---------------------------------------------------------------
 Warning -- This program may not be used in any manner that
 competes with the business of Gaussian, Inc. or will provide
 assistance to any competitor of Gaussian, Inc.  The licensee
 of this program is prohibited from giving any competitor of
 Gaussian, Inc. access to this program.  By using this program,
 the user acknowledges that Gaussian, Inc. is engaged in the
 business of creating and licensing software in the field of
 computational chemistry and represents and warrants to the
 licensee that it is not a competitor of Gaussian, Inc. and that
 it will not use this program in any manner prohibited above.
 ---------------------------------------------------------------
  

 Cite this work as:
 Gaussian 16, Revision C.01,
 M. J. Frisch, G. W. Trucks, H. B. Schlegel, G. E. Scuseria, 
 M. A. Robb, J. R. Cheeseman, G. Scalmani, V. Barone, 
 G. A. Petersson, H. Nakatsuji, X. Li, M. Caricato, A. V. Marenich, 
 J. Bloino, B. G. Janesko, R. Gomperts, B. Mennucci, H. P. Hratchian, 
 J. V. Ortiz, A. F. Izmaylov, J. L. Sonnenberg, D. Williams-Young, 
 F. Ding, F. Lipparini, F. Egidi, J. Goings, B. Peng, A. Petrone, 
 T. Henderson, D. Ranasinghe, V. G. Zakrzewski, J. Gao, N. Rega, 
 G. Zheng, W. Liang, M. Hada, M. Ehara, K. Toyota, R. Fukuda, 
 J. Hasegawa, M. Ishida, T. Nakajima, Y. Honda, O. Kitao, H. Nakai, 
 T. Vreven, K. Throssell, J. A. Montgomery, Jr., J. E. Peralta, 
 F. Ogliaro, M. J. Bearpark, J. J. Heyd, E. N. Brothers, K. N. Kudin, 
 V. N. Staroverov, T. A. Keith, R. Kobayashi, J. Normand, 
 K. Raghavachari, A. P. Rendell, J. C. Burant, S. S. Iyengar, 
 J. Tomasi, M. Cossi, J. M. Millam, M. Klene, C. Adamo, R. Cammi, 
 J. W. Ochterski, R. L. Martin, K. Morokuma, O. Farkas, 
 J. B. Foresman, and D. J. Fox, Gaussian, Inc., Wallingford CT, 2019.
 
 ******************************************
 Gaussian 16:  ES64L-G16RevC.01  3-Jul-2019
                22-Apr-2022 
 ******************************************
 %nprocshared=40
 Will use up to   40 processors via shared memory.
 %mem=100GB
 --------------------------
 # m062x/6-31+g(d) opt freq
 --------------------------
 1/18=20,19=15,26=3,38=1/1,3;
 2/9=110,12=2,17=6,18=5,40=1/2;
 3/5=1,6=6,7=11,11=2,25=1,30=1,71=1,74=-55/1,2,3;
 4//1;
 5/5=2,38=5/2;
 6/7=2,8=2,9=2,10=2,28=1/1;
 7//1,2,3,16;
 1/18=20,19=15,26=3/3(2);
 2/9=110/2;
 99//99;
 2/9=110/2;
 3/5=1,6=6,7=11,11=2,25=1,30=1,71=1,74=-55/1,2,3;
 4/5=5,16=3,69=1/1;
 5/5=2,38=5/2;
 7//1,2,3,16;
 1/18=20,19=15,26=3/3(-5);
 2/9=110/2;
 6/7=2,8=2,9=2,10=2,19=2,28=1/1;
 99/9=1/99;
 -----
 water
 -----
 Symbolic Z-matrix:
 Charge =  0 Multiplicity = 1
 O                    -2.61019  -0.24793   0. 
 H                    -1.65019  -0.24793   0. 
 H                    -2.93065   0.657     0. 
 

 GradGradGradGradGradGradGradGradGradGradGradGradGradGradGradGradGradGrad
 Berny optimization.
 Initialization pass.
                           ----------------------------
                           !    Initial Parameters    !
                           ! (Angstroms and Degrees)  !
 --------------------------                            --------------------------
 ! Name  Definition              Value          Derivative Info.                !
 --------------------------------------------------------------------------------
 ! R1    R(1,2)                  0.96           estimate D2E/DX2                !
 ! R2    R(1,3)                  0.96           estimate D2E/DX2                !
 ! A1    A(2,1,3)              109.5            estimate D2E/DX2                !
 --------------------------------------------------------------------------------
 Trust Radius=3.00D-01 FncErr=1.00D-07 GrdErr=1.00D-06 EigMax=2.50D+02 EigMin=1.00D-04
 Number of steps in this run=     20 maximum allowed number of steps=    100.
 GradGradGradGradGradGradGradGradGradGradGradGradGradGradGradGradGradGrad

                          Input orientation:                          
 ---------------------------------------------------------------------
 Center     Atomic      Atomic             Coordinates (Angstroms)
 Number     Number       Type             X           Y           Z
 ---------------------------------------------------------------------
      1          8           0       -2.610193   -0.247934    0.000000
      2          1           0       -1.650193   -0.247934    0.000000
      3          1           0       -2.930647    0.657002    0.000000
 ---------------------------------------------------------------------
                    Distance matrix (angstroms):
                    1          2          3
     1  O    0.000000
     2  H    0.960000   0.000000
     3  H    0.960000   1.567952   0.000000
 Stoichiometry    H2O
 Framework group  C2V[C2(O),SGV(H2)]
 Deg. of freedom     2
 Full point group                 C2V     NOp   4
 Largest Abelian subgroup         C2V     NOp   4
 Largest concise Abelian subgroup C2      NOp   2
                         Standard orientation:                         
 ---------------------------------------------------------------------
 Center     Atomic      Atomic             Coordinates (Angstroms)
 Number     Number       Type             X           Y           Z
 ---------------------------------------------------------------------
      1          8           0        0.000000   -0.000000    0.110812
      2          1           0        0.000000    0.783976   -0.443248
      3          1           0       -0.000000   -0.783976   -0.443248
 ---------------------------------------------------------------------
 Rotational constants (GHZ):         919.6759688         407.9403309         282.5913776
 Standard basis: 6-31+G(d) (6D, 7F)
 There are    12 symmetry adapted cartesian basis functions of A1  symmetry.
 There are     1 symmetry adapted cartesian basis functions of A2  symmetry.
 There are     4 symmetry adapted cartesian basis functions of B1  symmetry.
 There are     6 symmetry adapted cartesian basis functions of B2  symmetry.
 There are    12 symmetry adapted basis functions of A1  symmetry.
 There are     1 symmetry adapted basis functions of A2  symmetry.
 There are     4 symmetry adapted basis functions of B1  symmetry.
 There are     6 symmetry adapted basis functions of B2  symmetry.
    23 basis functions,    40 primitive gaussians,    23 cartesian basis functions
     5 alpha electrons        5 beta electrons
       nuclear repulsion energy         9.1571160303 Hartrees.
 NAtoms=    3 NActive=    3 NUniq=    2 SFac= 2.25D+00 NAtFMM=   60 NAOKFM=F Big=F
 Integral buffers will be    131072 words long.
 Raffenetti 2 integral format.
 Two-electron integral symmetry is turned on.
 One-electron integrals computed using PRISM.
 NBasis=    23 RedAO= T EigKep=  1.84D-02  NBF=    12     1     4     6
 NBsUse=    23 1.00D-06 EigRej= -1.00D+00 NBFU=    12     1     4     6
 ExpMin= 8.45D-02 ExpMax= 5.48D+03 ExpMxC= 8.25D+02 IAcc=3 IRadAn=         5 AccDes= 0.00D+00
 Harris functional with IExCor= 1009 and IRadAn=       5 diagonalized for initial guess.
 HarFok:  IExCor= 1009 AccDes= 0.00D+00 IRadAn=         5 IDoV= 1 UseB2=F ITyADJ=14
 ICtDFT=  3500011 ScaDFX=  1.000000  1.000000  1.000000  1.000000
 FoFCou: FMM=F IPFlag=           0 FMFlag=      100000 FMFlg1=           0
         NFxFlg=           0 DoJE=T BraDBF=F KetDBF=T FulRan=T
         wScrn=  0.000000 ICntrl=       500 IOpCl=  0 I1Cent=   200000004 NGrid=           0
         NMat0=    1 NMatS0=      1 NMatT0=    0 NMatD0=    1 NMtDS0=    0 NMtDT0=    0
 Petite list used in FoFCou.
 Initial guess orbital symmetries:
       Occupied  (A1) (A1) (B2) (A1) (B1)
       Virtual   (A1) (B2) (A1) (B1) (B2) (A1) (B2) (A1) (B1) (B2)
                 (A1) (A1) (A2) (A1) (B1) (A1) (B2) (A1)
 The electronic state of the initial guess is 1-A1.
 Keep R1 ints in memory in symmetry-blocked form, NReq=34598408.
 Requested convergence on RMS density matrix=1.00D-08 within 128 cycles.
 Requested convergence on MAX density matrix=1.00D-06.
 Requested convergence on             energy=1.00D-06.
 No special actions if energy rises.
 Integral accuracy reduced to 1.0D-05 until final iterations.
 Initial convergence to 1.0D-05 achieved.  Increase integral accuracy.
 SCF Done:  E(RM062X) =  -76.3834021880     A.U. after   12 cycles
            NFock= 12  Conv=0.16D-08     -V/T= 2.0082

 **********************************************************************

            Population analysis using the SCF Density.

 **********************************************************************

 Orbital symmetries:
       Occupied  (A1) (A1) (B2) (A1) (B1)
       Virtual   (A1) (B2) (A1) (B1) (B2) (A1) (B2) (A1) (B2) (B1)
                 (A1) (A1) (A2) (A1) (B1) (A1) (B2) (A1)
 The electronic state is 1-A1.
 Alpha  occ. eigenvalues --  -19.64816  -1.13524  -0.62304  -0.46331  -0.39509
 Alpha virt. eigenvalues --    0.07253   0.14389   0.18118   0.18531   0.25425
 Alpha virt. eigenvalues --    0.27623   1.04667   1.10989   1.17428   1.19534
 Alpha virt. eigenvalues --    1.19646   1.29330   1.77886   1.78346   1.82293
 Alpha virt. eigenvalues --    2.35032   2.70615   3.70656
          Condensed to atoms (all electrons):
               1          2          3
     1  O    8.472515   0.242248   0.242248
     2  H    0.242248   0.300932  -0.021686
     3  H    0.242248  -0.021686   0.300932
 Mulliken charges:
               1
     1  O   -0.957012
     2  H    0.478506
     3  H    0.478506
 Sum of Mulliken charges =   0.00000
 Mulliken charges with hydrogens summed into heavy atoms:
               1
     1  O    0.000000
 Electronic spatial extent (au):  <R**2>=             19.8873
 Charge=              0.0000 electrons
 Dipole moment (field-independent basis, Debye):
    X=             -0.0000    Y=              0.0000    Z=             -2.1992  Tot=              2.1992
 Quadrupole moment (field-independent basis, Debye-Ang):
   XX=             -7.8271   YY=             -4.0988   ZZ=             -6.5597
   XY=              0.0000   XZ=              0.0000   YZ=              0.0000
 Traceless Quadrupole moment (field-independent basis, Debye-Ang):
   XX=             -1.6652   YY=              2.0630   ZZ=             -0.3978
   XY=              0.0000   XZ=              0.0000   YZ=              0.0000
 Octapole moment (field-independent basis, Debye-Ang**2):
  XXX=              0.0000  YYY=              0.0000  ZZZ=             -1.5793  XYY=             -0.0000
  XXY=              0.0000  XXZ=             -0.4657  XZZ=             -0.0000  YZZ=              0.0000
  YYZ=             -1.4659  XYZ=             -0.0000
 Hexadecapole moment (field-independent basis, Debye-Ang**3):
 XXXX=             -7.4363 YYYY=             -5.8906 ZZZZ=             -7.6518 XXXY=             -0.0000
 XXXZ=             -0.0000 YYYX=              0.0000 YYYZ=              0.0000 ZZZX=             -0.0000
 ZZZY=              0.0000 XXYY=             -2.5289 XXZZ=             -2.5550 YYZZ=             -1.9940
 XXYZ=              0.0000 YYXZ=              0.0000 ZZXY=              0.0000
 N-N= 9.157116030293D+00 E-N=-1.986118891494D+02  KE= 7.576297172653D+01
 Symmetry A1   KE= 6.771106481451D+01
 Symmetry A2   KE= 6.407479146471D-35
 Symmetry B1   KE= 4.457518837840D+00
 Symmetry B2   KE= 3.594388074175D+00
 Calling FoFJK, ICntrl=      2127 FMM=F ISym2X=1 I1Cent= 0 IOpClX= 0 NMat=1 NMatS=1 NMatT=0.
 ***** Axes restored to original set *****
 -------------------------------------------------------------------
 Center     Atomic                   Forces (Hartrees/Bohr)
 Number     Number              X              Y              Z
 -------------------------------------------------------------------
      1        8          -0.007933507   -0.011225653    0.000000000
      2        1           0.004295757    0.005380310   -0.000000000
      3        1           0.003637750    0.005845343   -0.000000000
 -------------------------------------------------------------------
 Cartesian Forces:  Max     0.011225653 RMS     0.005615043

 GradGradGradGradGradGradGradGradGradGradGradGradGradGradGradGradGradGrad
 Berny optimization.
 FormGI is forming the generalized inverse of G from B-inverse, IUseBI=4.
 Internal  Forces:  Max     0.009760620 RMS     0.006637689
 Search for a local minimum.
 Step number   1 out of a maximum of   20
 All quantities printed in internal units (Hartrees-Bohrs-Radians)
 Mixed Optimization -- RFO/linear search
 Second derivative matrix not updated -- first step.
 The second derivative matrix:
                          R1        R2        A1
           R1           0.55473
           R2           0.00000   0.55473
           A1           0.00000   0.00000   0.16000
 ITU=  0
     Eigenvalues ---    0.16000   0.55473   0.55473
 RFO step:  Lambda=-6.59434063D-04 EMin= 1.60000000D-01
 Linear search not attempted -- first point.
 Iteration  1 RMS(Cart)=  0.03125527 RMS(Int)=  0.00069881
 Iteration  2 RMS(Cart)=  0.00068201 RMS(Int)=  0.00000007
 Iteration  3 RMS(Cart)=  0.00000006 RMS(Int)=  0.00000000
 ClnCor:  largest displacement from symmetrization is 1.42D-15 for atom     3.
 Variable       Old X    -DE/DX   Delta X   Delta X   Delta X     New X
                                 (Linear)    (Quad)   (Total)
    R1        1.81414   0.00430   0.00000   0.00773   0.00773   1.82187
    R2        1.81414   0.00430   0.00000   0.00773   0.00773   1.82187
    A1        1.91114  -0.00976   0.00000  -0.06075  -0.06075   1.85038
         Item               Value     Threshold  Converged?
 Maximum Force            0.009761     0.000450     NO 
 RMS     Force            0.006638     0.000300     NO 
 Maximum Displacement     0.030941     0.001800     NO 
 RMS     Displacement     0.031599     0.001200     NO 
 Predicted change in Energy=-3.309783D-04
 GradGradGradGradGradGradGradGradGradGradGradGradGradGradGradGradGradGrad

                          Input orientation:                          
 ---------------------------------------------------------------------
 Center     Atomic      Atomic             Coordinates (Angstroms)
 Number     Number       Type             X           Y           Z
 ---------------------------------------------------------------------
      1          8           0       -2.620203   -0.262099   -0.000000
      2          1           0       -1.656555   -0.232817   -0.000000
      3          1           0       -2.914274    0.656050    0.000000
 ---------------------------------------------------------------------
                    Distance matrix (angstroms):
                    1          2          3
     1  O    0.000000
     2  H    0.964093   0.000000
     3  H    0.964093   1.540111   0.000000
 Stoichiometry    H2O
 Framework group  C2V[C2(O),SGV(H2)]
 Deg. of freedom     2
 Full point group                 C2V     NOp   4
 Largest Abelian subgroup         C2V     NOp   4
 Largest concise Abelian subgroup C2      NOp   2
                         Standard orientation:                         
 ---------------------------------------------------------------------
 Center     Atomic      Atomic             Coordinates (Angstroms)
 Number     Number       Type             X           Y           Z
 ---------------------------------------------------------------------
      1          8           0        0.000000    0.000000    0.116015
      2          1           0        0.000000    0.770055   -0.464062
      3          1           0       -0.000000   -0.770055   -0.464062
 ---------------------------------------------------------------------
 Rotational constants (GHZ):         839.0262461         422.8224215         281.1423574
 Standard basis: 6-31+G(d) (6D, 7F)
 There are    12 symmetry adapted cartesian basis functions of A1  symmetry.
 There are     1 symmetry adapted cartesian basis functions of A2  symmetry.
 There are     4 symmetry adapted cartesian basis functions of B1  symmetry.
 There are     6 symmetry adapted cartesian basis functions of B2  symmetry.
 There are    12 symmetry adapted basis functions of A1  symmetry.
 There are     1 symmetry adapted basis functions of A2  symmetry.
 There are     4 symmetry adapted basis functions of B1  symmetry.
 There are     6 symmetry adapted basis functions of B2  symmetry.
    23 basis functions,    40 primitive gaussians,    23 cartesian basis functions
     5 alpha electrons        5 beta electrons
       nuclear repulsion energy         9.1257739572 Hartrees.
 NAtoms=    3 NActive=    3 NUniq=    2 SFac= 2.25D+00 NAtFMM=   60 NAOKFM=F Big=F
 Integral buffers will be    131072 words long.
 Raffenetti 2 integral format.
 Two-electron integral symmetry is turned on.
 One-electron integrals computed using PRISM.
 NBasis=    23 RedAO= T EigKep=  1.80D-02  NBF=    12     1     4     6
 NBsUse=    23 1.00D-06 EigRej= -1.00D+00 NBFU=    12     1     4     6
 Initial guess from the checkpoint file:  "/scratch/global/Gau-84253.chk"
 B after Tr=     0.000000    0.000000   -0.000000
         Rot=    1.000000   -0.000000    0.000000    0.000000 Ang=   0.00 deg.
 Initial guess orbital symmetries:
       Occupied  (A1) (A1) (B2) (A1) (B1)
       Virtual   (A1) (B2) (A1) (B1) (B2) (A1) (B2) (A1) (B2) (B1)
                 (A1) (A1) (A2) (A1) (B1) (A1) (B2) (A1)
 ExpMin= 8.45D-02 ExpMax= 5.48D+03 ExpMxC= 8.25D+02 IAcc=3 IRadAn=         5 AccDes= 0.00D+00
 Harris functional with IExCor= 1009 and IRadAn=       5 diagonalized for initial guess.
 HarFok:  IExCor= 1009 AccDes= 0.00D+00 IRadAn=         5 IDoV= 1 UseB2=F ITyADJ=14
 ICtDFT=  3500011 ScaDFX=  1.000000  1.000000  1.000000  1.000000
 FoFCou: FMM=F IPFlag=           0 FMFlag=      100000 FMFlg1=           0
         NFxFlg=           0 DoJE=T BraDBF=F KetDBF=T FulRan=T
         wScrn=  0.000000 ICntrl=       500 IOpCl=  0 I1Cent=   200000004 NGrid=           0
         NMat0=    1 NMatS0=      1 NMatT0=    0 NMatD0=    1 NMtDS0=    0 NMtDT0=    0
 Petite list used in FoFCou.
 Keep R1 ints in memory in symmetry-blocked form, NReq=34598408.
 Requested convergence on RMS density matrix=1.00D-08 within 128 cycles.
 Requested convergence on MAX density matrix=1.00D-06.
 Requested convergence on             energy=1.00D-06.
 No special actions if energy rises.
 Integral accuracy reduced to 1.0D-05 until final iterations.
 Initial convergence to 1.0D-05 achieved.  Increase integral accuracy.
 SCF Done:  E(RM062X) =  -76.3837599506     A.U. after   11 cycles
            NFock= 11  Conv=0.15D-08     -V/T= 2.0083
 Calling FoFJK, ICntrl=      2127 FMM=F ISym2X=1 I1Cent= 0 IOpClX= 0 NMat=1 NMatS=1 NMatT=0.
 ***** Axes restored to original set *****
 -------------------------------------------------------------------
 Center     Atomic                   Forces (Hartrees/Bohr)
 Number     Number              X              Y              Z
 -------------------------------------------------------------------
      1        8          -0.001367885   -0.001935512    0.000000000
      2        1           0.001668493    0.000271944   -0.000000000
      3        1          -0.000300609    0.001663568   -0.000000000
 -------------------------------------------------------------------
 Cartesian Forces:  Max     0.001935512 RMS     0.001122149

 GradGradGradGradGradGradGradGradGradGradGradGradGradGradGradGradGradGrad
 Berny optimization.
 Using GEDIIS/GDIIS optimizer.
 FormGI is forming the generalized inverse of G from B-inverse, IUseBI=4.
 Internal  Forces:  Max     0.001675983 RMS     0.001388064
 Search for a local minimum.
 Step number   2 out of a maximum of   20
 All quantities printed in internal units (Hartrees-Bohrs-Radians)
 Mixed Optimization -- RFO/linear search
 Update second derivatives using D2CorX and points    1    2
 DE= -3.58D-04 DEPred=-3.31D-04 R= 1.08D+00
 TightC=F SS=  1.41D+00  RLast= 6.17D-02 DXNew= 5.0454D-01 1.8519D-01
 Trust test= 1.08D+00 RLast= 6.17D-02 DXMaxT set to 3.00D-01
 The second derivative matrix:
                          R1        R2        A1
           R1           0.53798
           R2          -0.01675   0.53798
           A1           0.02324   0.02324   0.15994
 ITU=  1  0
 Use linear search instead of GDIIS.
     Eigenvalues ---    0.15698   0.52419   0.55473
 RFO step:  Lambda=-8.57874616D-06 EMin= 1.56979668D-01
 Quartic linear search produced a step of  0.08032.
 Iteration  1 RMS(Cart)=  0.00221192 RMS(Int)=  0.00000412
 Iteration  2 RMS(Cart)=  0.00000464 RMS(Int)=  0.00000000
 Iteration  3 RMS(Cart)=  0.00000000 RMS(Int)=  0.00000000
 ClnCor:  largest displacement from symmetrization is 3.02D-15 for atom     3.
 Variable       Old X    -DE/DX   Delta X   Delta X   Delta X     New X
                                 (Linear)    (Quad)   (Total)
    R1        1.82187   0.00168   0.00062   0.00274   0.00336   1.82523
    R2        1.82187   0.00168   0.00062   0.00274   0.00336   1.82523
    A1        1.85038  -0.00040  -0.00488   0.00153  -0.00335   1.84704
         Item               Value     Threshold  Converged?
 Maximum Force            0.001676     0.000450     NO 
 RMS     Force            0.001388     0.000300     NO 
 Maximum Displacement     0.002428     0.001800     NO 
 RMS     Displacement     0.002212     0.001200     NO 
 Predicted change in Energy=-6.353423D-06
 GradGradGradGradGradGradGradGradGradGradGradGradGradGradGradGradGradGrad

                          Input orientation:                          
 ---------------------------------------------------------------------
 Center     Atomic      Atomic             Coordinates (Angstroms)
 Number     Number       Type             X           Y           Z
 ---------------------------------------------------------------------
      1          8           0       -2.621111   -0.263383    0.000000
      2          1           0       -1.655737   -0.232432   -0.000000
      3          1           0       -2.914184    0.656950    0.000000
 ---------------------------------------------------------------------
                    Distance matrix (angstroms):
                    1          2          3
     1  O    0.000000
     2  H    0.965870   0.000000
     3  H    0.965870   1.541003   0.000000
 Stoichiometry    H2O
 Framework group  C2V[C2(O),SGV(H2)]
 Deg. of freedom     2
 Full point group                 C2V     NOp   4
 Largest Abelian subgroup         C2V     NOp   4
 Largest concise Abelian subgroup C2      NOp   2
                         Standard orientation:                         
 ---------------------------------------------------------------------
 Center     Atomic      Atomic             Coordinates (Angstroms)
 Number     Number       Type             X           Y           Z
 ---------------------------------------------------------------------
      1          8           0       -0.000000    0.000000    0.116487
      2          1           0       -0.000000    0.770502   -0.465950
      3          1           0       -0.000000   -0.770502   -0.465950
 ---------------------------------------------------------------------
 Rotational constants (GHZ):         832.2416886         422.3329509         280.1611615
 Standard basis: 6-31+G(d) (6D, 7F)
 There are    12 symmetry adapted cartesian basis functions of A1  symmetry.
 There are     1 symmetry adapted cartesian basis functions of A2  symmetry.
 There are     4 symmetry adapted cartesian basis functions of B1  symmetry.
 There are     6 symmetry adapted cartesian basis functions of B2  symmetry.
 There are    12 symmetry adapted basis functions of A1  symmetry.
 There are     1 symmetry adapted basis functions of A2  symmetry.
 There are     4 symmetry adapted basis functions of B1  symmetry.
 There are     6 symmetry adapted basis functions of B2  symmetry.
    23 basis functions,    40 primitive gaussians,    23 cartesian basis functions
     5 alpha electrons        5 beta electrons
       nuclear repulsion energy         9.1094137785 Hartrees.
 NAtoms=    3 NActive=    3 NUniq=    2 SFac= 2.25D+00 NAtFMM=   60 NAOKFM=F Big=F
 Integral buffers will be    131072 words long.
 Raffenetti 2 integral format.
 Two-electron integral symmetry is turned on.
 One-electron integrals computed using PRISM.
 NBasis=    23 RedAO= T EigKep=  1.81D-02  NBF=    12     1     4     6
 NBsUse=    23 1.00D-06 EigRej= -1.00D+00 NBFU=    12     1     4     6
 Initial guess from the checkpoint file:  "/scratch/global/Gau-84253.chk"
 B after Tr=    -0.000000   -0.000000    0.000000
         Rot=    1.000000   -0.000000    0.000000   -0.000000 Ang=   0.00 deg.
 Initial guess orbital symmetries:
       Occupied  (A1) (A1) (B2) (A1) (B1)
       Virtual   (A1) (B2) (A1) (B1) (B2) (A1) (B2) (A1) (B2) (B1)
                 (A1) (A1) (A1) (A2) (B1) (A1) (B2) (A1)
 Keep R1 ints in memory in symmetry-blocked form, NReq=34598408.
 Requested convergence on RMS density matrix=1.00D-08 within 128 cycles.
 Requested convergence on MAX density matrix=1.00D-06.
 Requested convergence on             energy=1.00D-06.
 No special actions if energy rises.
 SCF Done:  E(RM062X) =  -76.3837661896     A.U. after    7 cycles
            NFock=  7  Conv=0.39D-08     -V/T= 2.0084
 Calling FoFJK, ICntrl=      2127 FMM=F ISym2X=1 I1Cent= 0 IOpClX= 0 NMat=1 NMatS=1 NMatT=0.
 ***** Axes restored to original set *****
 -------------------------------------------------------------------
 Center     Atomic                   Forces (Hartrees/Bohr)
 Number     Number              X              Y              Z
 -------------------------------------------------------------------
      1        8           0.000006450    0.000009126    0.000000000
      2        1          -0.000030332    0.000014594   -0.000000000
      3        1           0.000023882   -0.000023720   -0.000000000
 -------------------------------------------------------------------
 Cartesian Forces:  Max     0.000030332 RMS     0.000016299

 GradGradGradGradGradGradGradGradGradGradGradGradGradGradGradGradGradGrad
 Berny optimization.
 Using GEDIIS/GDIIS optimizer.
 FormGI is forming the generalized inverse of G from B-inverse, IUseBI=4.
 Internal  Forces:  Max     0.000029849 RMS     0.000029373
 Search for a local minimum.
 Step number   3 out of a maximum of   20
 All quantities printed in internal units (Hartrees-Bohrs-Radians)
 Mixed Optimization -- En-DIIS/RFO-DIIS
 Update second derivatives using D2CorX and points    1    2    3
 DE= -6.24D-06 DEPred=-6.35D-06 R= 9.82D-01
 TightC=F SS=  1.41D+00  RLast= 5.81D-03 DXNew= 5.0454D-01 1.7432D-02
 Trust test= 9.82D-01 RLast= 5.81D-03 DXMaxT set to 3.00D-01
 The second derivative matrix:
                          R1        R2        A1
           R1           0.54304
           R2          -0.01170   0.54304
           A1           0.02356   0.02356   0.15919
 ITU=  1  1  0
 Use linear search instead of GDIIS.
     Eigenvalues ---    0.15623   0.53430   0.55473
 RFO step:  Lambda= 0.00000000D+00 EMin= 1.56228499D-01
 Quartic linear search produced a step of -0.00834.
 Iteration  1 RMS(Cart)=  0.00011354 RMS(Int)=  0.00000001
 Iteration  2 RMS(Cart)=  0.00000000 RMS(Int)=  0.00000000
 ClnCor:  largest displacement from symmetrization is 9.91D-15 for atom     3.
 Variable       Old X    -DE/DX   Delta X   Delta X   Delta X     New X
                                 (Linear)    (Quad)   (Total)
    R1        1.82523  -0.00003  -0.00003  -0.00002  -0.00005   1.82518
    R2        1.82523  -0.00003  -0.00003  -0.00002  -0.00005   1.82518
    A1        1.84704  -0.00003   0.00003  -0.00019  -0.00016   1.84687
         Item               Value     Threshold  Converged?
 Maximum Force            0.000030     0.000450     YES
 RMS     Force            0.000029     0.000300     YES
 Maximum Displacement     0.000123     0.001800     YES
 RMS     Displacement     0.000114     0.001200     YES
 Predicted change in Energy=-3.787303D-09
 Optimization completed.
    -- Stationary point found.
                           ----------------------------
                           !   Optimized Parameters   !
                           ! (Angstroms and Degrees)  !
 --------------------------                            --------------------------
 ! Name  Definition              Value          Derivative Info.                !
 --------------------------------------------------------------------------------
 ! R1    R(1,2)                  0.9659         -DE/DX =    0.0                 !
 ! R2    R(1,3)                  0.9659         -DE/DX =    0.0                 !
 ! A1    A(2,1,3)              105.8273         -DE/DX =    0.0                 !
 --------------------------------------------------------------------------------
 GradGradGradGradGradGradGradGradGradGradGradGradGradGradGradGradGradGrad

                          Input orientation:                          
 ---------------------------------------------------------------------
 Center     Atomic      Atomic             Coordinates (Angstroms)
 Number     Number       Type             X           Y           Z
 ---------------------------------------------------------------------
      1          8           0       -2.621111   -0.263383    0.000000
      2          1           0       -1.655737   -0.232432   -0.000000
      3          1           0       -2.914184    0.656950    0.000000
 ---------------------------------------------------------------------
                    Distance matrix (angstroms):
                    1          2          3
     1  O    0.000000
     2  H    0.965870   0.000000
     3  H    0.965870   1.541003   0.000000
 Stoichiometry    H2O
 Framework group  C2V[C2(O),SGV(H2)]
 Deg. of freedom     2
 Full point group                 C2V     NOp   4
 Largest Abelian subgroup         C2V     NOp   4
 Largest concise Abelian subgroup C2      NOp   2
                         Standard orientation:                         
 ---------------------------------------------------------------------
 Center     Atomic      Atomic             Coordinates (Angstroms)
 Number     Number       Type             X           Y           Z
 ---------------------------------------------------------------------
      1          8           0        0.000000    0.000000    0.116487
      2          1           0        0.000000    0.770502   -0.465950
      3          1           0       -0.000000   -0.770502   -0.465950
 ---------------------------------------------------------------------
 Rotational constants (GHZ):         832.2416886         422.3329509         280.1611615

 **********************************************************************

            Population analysis using the SCF Density.

 **********************************************************************

 Orbital symmetries:
       Occupied  (A1) (A1) (B2) (A1) (B1)
       Virtual   (A1) (B2) (A1) (B1) (B2) (A1) (B2) (A1) (B2) (B1)
                 (A1) (A1) (A1) (A2) (B1) (A1) (B2) (A1)
 The electronic state is 1-A1.
 Alpha  occ. eigenvalues --  -19.65057  -1.13524  -0.61397  -0.46937  -0.39545
 Alpha virt. eigenvalues --    0.07053   0.14575   0.18120   0.18521   0.24682
 Alpha virt. eigenvalues --    0.28051   1.02757   1.11421   1.17476   1.19493
 Alpha virt. eigenvalues --    1.20804   1.29981   1.77412   1.78349   1.82006
 Alpha virt. eigenvalues --    2.33471   2.69868   3.70644
          Condensed to atoms (all electrons):
               1          2          3
     1  O    8.472897   0.237603   0.237603
     2  H    0.237603   0.311098  -0.022753
     3  H    0.237603  -0.022753   0.311098
 Mulliken charges:
               1
     1  O   -0.948104
     2  H    0.474052
     3  H    0.474052
 Sum of Mulliken charges =   0.00000
 Mulliken charges with hydrogens summed into heavy atoms:
               1
     1  O    0.000000
 Electronic spatial extent (au):  <R**2>=             19.9571
 Charge=             -0.0000 electrons
 Dipole moment (field-independent basis, Debye):
    X=             -0.0000    Y=              0.0000    Z=             -2.2713  Tot=              2.2713
 Quadrupole moment (field-independent basis, Debye-Ang):
   XX=             -7.8337   YY=             -4.2540   ZZ=             -6.4452
   XY=              0.0000   XZ=              0.0000   YZ=              0.0000
 Traceless Quadrupole moment (field-independent basis, Debye-Ang):
   XX=             -1.6560   YY=              1.9236   ZZ=             -0.2676
   XY=              0.0000   XZ=              0.0000   YZ=              0.0000
 Octapole moment (field-independent basis, Debye-Ang**2):
  XXX=              0.0000  YYY=              0.0000  ZZZ=             -1.6558  XYY=             -0.0000
  XXY=              0.0000  XXZ=             -0.4803  XZZ=             -0.0000  YZZ=              0.0000
  YYZ=             -1.4740  XYZ=             -0.0000
 Hexadecapole moment (field-independent basis, Debye-Ang**3):
 XXXX=             -7.4323 YYYY=             -6.0653 ZZZZ=             -7.6700 XXXY=             -0.0000
 XXXZ=             -0.0000 YYYX=              0.0000 YYYZ=             -0.0000 ZZZX=             -0.0000
 ZZZY=              0.0000 XXYY=             -2.5313 XXZZ=             -2.5661 YYZZ=             -1.9733
 XXYZ=              0.0000 YYXZ=              0.0000 ZZXY=              0.0000
 N-N= 9.109413778464D+00 E-N=-1.985060448441D+02  KE= 7.574945325084D+01
 Symmetry A1   KE= 6.769445022569D+01
 Symmetry A2   KE= 9.502836161937D-35
 Symmetry B1   KE= 4.461970078008D+00
 Symmetry B2   KE= 3.593032947138D+00
 Unable to Open any file for archive entry.
 1\1\GINC-N5\FOpt\RM062X\6-31+G(d)\H2O1\NIKAMEL99\22-Apr-2022\0\\# m062
 x/6-31+g(d) opt freq\\water\\0,1\O,-2.6211113721,-0.2633834731,0.\H,-1
 .6557369983,-0.2324324624,0.\H,-2.9141842551,0.6569501251,0.\\Version=
 ES64L-G16RevC.01\State=1-A1\HF=-76.3837662\RMSD=3.860e-09\RMSF=1.630e-
 05\Dipole=0.5157304,0.7297417,0.\Quadrupole=0.8875224,0.3437017,-1.231
 2241,-0.7678511,0.,0.\PG=C02V [C2(O1),SGV(H2)]\\@
 The archive entry for this job was punched.


 My opinions may have changed, but not the fact that I am right.
                       -- Ashleigh Brilliant
 Job cpu time:       0 days  0 hours  3 minutes  3.9 seconds.
 Elapsed time:       0 days  0 hours  0 minutes  5.8 seconds.
 File lengths (MBytes):  RWF=      6 Int=      0 D2E=      0 Chk=      1 Scr=      1
 Normal termination of Gaussian 16 at Fri Apr 22 11:40:01 2022.
 Link1:  Proceeding to internal job step number  2.
 ---------------------------------------------------------------------
 #N Geom=AllCheck Guess=TCheck SCRF=Check GenChk RM062X/6-31+G(d) Freq
 ---------------------------------------------------------------------
 1/10=4,29=7,30=1,38=1,40=1/1,3;
 2/12=2,40=1/2;
 3/5=1,6=6,7=11,11=2,14=-4,25=1,30=1,70=2,71=2,74=-55,116=1,140=1/1,2,3;
 4/5=101/1;
 5/5=2,38=6,98=1/2;
 8/6=4,10=90,11=11/1;
 11/6=1,8=1,9=11,15=111,16=1/1,2,10;
 10/6=1/2;
 6/7=2,8=2,9=2,10=2,28=1/1;
 7/8=1,10=1,25=1/1,2,3,16;
 1/10=4,30=1/3;
 99//99;
 Structure from the checkpoint file:  "/scratch/global/Gau-84253.chk"
 -----
 water
 -----
 Charge =  0 Multiplicity = 1
 Redundant internal coordinates found in file.  (old form).
 O,0,-2.6211113721,-0.2633834731,0.
 H,0,-1.6557369983,-0.2324324624,0.
 H,0,-2.9141842551,0.6569501251,0.
 Recover connectivity data from disk.

 GradGradGradGradGradGradGradGradGradGradGradGradGradGradGradGradGradGrad
 Berny optimization.
 Initialization pass.
                           ----------------------------
                           !    Initial Parameters    !
                           ! (Angstroms and Degrees)  !
 --------------------------                            --------------------------
 ! Name  Definition              Value          Derivative Info.                !
 --------------------------------------------------------------------------------
 ! R1    R(1,2)                  0.9659         calculate D2E/DX2 analytically  !
 ! R2    R(1,3)                  0.9659         calculate D2E/DX2 analytically  !
 ! A1    A(2,1,3)              105.8273         calculate D2E/DX2 analytically  !
 --------------------------------------------------------------------------------
 Trust Radius=3.00D-01 FncErr=1.00D-07 GrdErr=1.00D-07 EigMax=2.50D+02 EigMin=1.00D-04
 Number of steps in this run=      2 maximum allowed number of steps=      2.
 GradGradGradGradGradGradGradGradGradGradGradGradGradGradGradGradGradGrad

                          Input orientation:                          
 ---------------------------------------------------------------------
 Center     Atomic      Atomic             Coordinates (Angstroms)
 Number     Number       Type             X           Y           Z
 ---------------------------------------------------------------------
      1          8           0       -2.621111   -0.263383    0.000000
      2          1           0       -1.655737   -0.232432   -0.000000
      3          1           0       -2.914184    0.656950    0.000000
 ---------------------------------------------------------------------
                    Distance matrix (angstroms):
                    1          2          3
     1  O    0.000000
     2  H    0.965870   0.000000
     3  H    0.965870   1.541003   0.000000
 Stoichiometry    H2O
 Framework group  C2V[C2(O),SGV(H2)]
 Deg. of freedom     2
 Full point group                 C2V     NOp   4
 Largest Abelian subgroup         C2V     NOp   4
 Largest concise Abelian subgroup C2      NOp   2
                         Standard orientation:                         
 ---------------------------------------------------------------------
 Center     Atomic      Atomic             Coordinates (Angstroms)
 Number     Number       Type             X           Y           Z
 ---------------------------------------------------------------------
      1          8           0        0.000000    0.000000    0.116487
      2          1           0       -0.000000    0.770502   -0.465950
      3          1           0       -0.000000   -0.770502   -0.465950
 ---------------------------------------------------------------------
 Rotational constants (GHZ):         832.2416886         422.3329509         280.1611615
 Standard basis: 6-31+G(d) (6D, 7F)
 There are    12 symmetry adapted cartesian basis functions of A1  symmetry.
 There are     1 symmetry adapted cartesian basis functions of A2  symmetry.
 There are     4 symmetry adapted cartesian basis functions of B1  symmetry.
 There are     6 symmetry adapted cartesian basis functions of B2  symmetry.
 There are    12 symmetry adapted basis functions of A1  symmetry.
 There are     1 symmetry adapted basis functions of A2  symmetry.
 There are     4 symmetry adapted basis functions of B1  symmetry.
 There are     6 symmetry adapted basis functions of B2  symmetry.
    23 basis functions,    40 primitive gaussians,    23 cartesian basis functions
     5 alpha electrons        5 beta electrons
       nuclear repulsion energy         9.1094137785 Hartrees.
 NAtoms=    3 NActive=    3 NUniq=    2 SFac= 2.25D+00 NAtFMM=   60 NAOKFM=F Big=F
 Integral buffers will be    131072 words long.
 Raffenetti 2 integral format.
 Two-electron integral symmetry is turned on.
 One-electron integrals computed using PRISM.
 NBasis=    23 RedAO= T EigKep=  1.81D-02  NBF=    12     1     4     6
 NBsUse=    23 1.00D-06 EigRej= -1.00D+00 NBFU=    12     1     4     6
 Initial guess from the checkpoint file:  "/scratch/global/Gau-84253.chk"
 B after Tr=    -0.000000    0.000000   -0.000000
         Rot=    1.000000    0.000000   -0.000000   -0.000000 Ang=   0.00 deg.
 Initial guess orbital symmetries:
       Occupied  (A1) (A1) (B2) (A1) (B1)
       Virtual   (A1) (B2) (A1) (B1) (B2) (A1) (B2) (A1) (B2) (B1)
                 (A1) (A1) (A1) (A2) (B1) (A1) (B2) (A1)
 Keep R1 ints in memory in symmetry-blocked form, NReq=34598408.
 Requested convergence on RMS density matrix=1.00D-08 within 128 cycles.
 Requested convergence on MAX density matrix=1.00D-06.
 Requested convergence on             energy=1.00D-06.
 No special actions if energy rises.
 SCF Done:  E(RM062X) =  -76.3837661896     A.U. after    1 cycles
            NFock=  1  Conv=0.38D-09     -V/T= 2.0084
 DoSCS=F DFT=T ScalE2(SS,OS)=  1.000000  1.000000
 Range of M.O.s used for correlation:     1    23
 NBasis=    23 NAE=     5 NBE=     5 NFC=     0 NFV=     0
 NROrb=     23 NOA=     5 NOB=     5 NVA=    18 NVB=    18
 Symmetrizing basis deriv contribution to polar:
 IMax=3 JMax=2 DiffMx= 0.00D+00
 G2DrvN: will do     4 centers at a time, making    1 passes.
 Calling FoFCou, ICntrl=  3107 FMM=F I1Cent=   0 AccDes= 0.00D+00.
 End of G2Drv F.D. properties file   721 does not exist.
 End of G2Drv F.D. properties file   722 does not exist.
 End of G2Drv F.D. properties file   788 does not exist.
          IDoAtm=111
          Differentiating once with respect to electric field.
                with respect to dipole field.
          Differentiating once with respect to nuclear coordinates.
 Keep R1 ints in memory in symmetry-blocked form, NReq=34460845.
          There are     9 degrees of freedom in the 1st order CPHF.  IDoFFX=4 NUNeed=     9.
      9 vectors produced by pass  0 Test12= 1.00D-15 1.11D-08 XBig12= 2.29D+00 1.00D+00.
 AX will form     9 AO Fock derivatives at one time.
      9 vectors produced by pass  1 Test12= 1.00D-15 1.11D-08 XBig12= 2.01D-01 1.68D-01.
      9 vectors produced by pass  2 Test12= 1.00D-15 1.11D-08 XBig12= 2.94D-03 2.58D-02.
      9 vectors produced by pass  3 Test12= 1.00D-15 1.11D-08 XBig12= 1.61D-05 1.70D-03.
      9 vectors produced by pass  4 Test12= 1.00D-15 1.11D-08 XBig12= 7.13D-08 1.10D-04.
      5 vectors produced by pass  5 Test12= 1.00D-15 1.11D-08 XBig12= 9.37D-11 5.89D-06.
      2 vectors produced by pass  6 Test12= 1.00D-15 1.11D-08 XBig12= 4.87D-14 1.15D-07.
 InvSVY:  IOpt=1 It=  1 EMax= 2.22D-16
 Solved reduced A of dimension    52 with     9 vectors.
 Isotropic polarizability for W=    0.000000        6.56 Bohr**3.
 End of Minotr F.D. properties file   721 does not exist.
 End of Minotr F.D. properties file   722 does not exist.
 End of Minotr F.D. properties file   788 does not exist.

 **********************************************************************

            Population analysis using the SCF Density.

 **********************************************************************

 Orbital symmetries:
       Occupied  (A1) (A1) (B2) (A1) (B1)
       Virtual   (A1) (B2) (A1) (B1) (B2) (A1) (B2) (A1) (B2) (B1)
                 (A1) (A1) (A1) (A2) (B1) (A1) (B2) (A1)
 The electronic state is 1-A1.
 Alpha  occ. eigenvalues --  -19.65057  -1.13524  -0.61397  -0.46937  -0.39545
 Alpha virt. eigenvalues --    0.07053   0.14575   0.18120   0.18521   0.24682
 Alpha virt. eigenvalues --    0.28051   1.02757   1.11421   1.17476   1.19493
 Alpha virt. eigenvalues --    1.20804   1.29981   1.77412   1.78349   1.82006
 Alpha virt. eigenvalues --    2.33471   2.69868   3.70644
          Condensed to atoms (all electrons):
               1          2          3
     1  O    8.472897   0.237603   0.237603
     2  H    0.237603   0.311098  -0.022753
     3  H    0.237603  -0.022753   0.311098
 Mulliken charges:
               1
     1  O   -0.948104
     2  H    0.474052
     3  H    0.474052
 Sum of Mulliken charges =  -0.00000
 Mulliken charges with hydrogens summed into heavy atoms:
               1
     1  O   -0.000000
 APT charges:
               1
     1  O   -0.608446
     2  H    0.304223
     3  H    0.304223
 Sum of APT charges =  -0.00000
 APT charges with hydrogens summed into heavy atoms:
               1
     1  O   -0.000000
 Electronic spatial extent (au):  <R**2>=             19.9571
 Charge=             -0.0000 electrons
 Dipole moment (field-independent basis, Debye):
    X=             -0.0000    Y=             -0.0000    Z=             -2.2713  Tot=              2.2713
 Quadrupole moment (field-independent basis, Debye-Ang):
   XX=             -7.8337   YY=             -4.2540   ZZ=             -6.4452
   XY=              0.0000   XZ=              0.0000   YZ=              0.0000
 Traceless Quadrupole moment (field-independent basis, Debye-Ang):
   XX=             -1.6560   YY=              1.9236   ZZ=             -0.2676
   XY=              0.0000   XZ=              0.0000   YZ=              0.0000
 Octapole moment (field-independent basis, Debye-Ang**2):
  XXX=              0.0000  YYY=             -0.0000  ZZZ=             -1.6558  XYY=             -0.0000
  XXY=             -0.0000  XXZ=             -0.4803  XZZ=             -0.0000  YZZ=             -0.0000
  YYZ=             -1.4740  XYZ=             -0.0000
 Hexadecapole moment (field-independent basis, Debye-Ang**3):
 XXXX=             -7.4323 YYYY=             -6.0653 ZZZZ=             -7.6700 XXXY=             -0.0000
 XXXZ=             -0.0000 YYYX=              0.0000 YYYZ=              0.0000 ZZZX=             -0.0000
 ZZZY=             -0.0000 XXYY=             -2.5313 XXZZ=             -2.5661 YYZZ=             -1.9733
 XXYZ=             -0.0000 YYXZ=              0.0000 ZZXY=              0.0000
 N-N= 9.109413778464D+00 E-N=-1.985060448721D+02  KE= 7.574945326399D+01
 Symmetry A1   KE= 6.769445022494D+01
 Symmetry A2   KE= 6.235484948920D-35
 Symmetry B1   KE= 4.461970082671D+00
 Symmetry B2   KE= 3.593032956372D+00
  Exact polarizability:       5.943       0.000       7.581      -0.000      -0.000       6.166
 Approx polarizability:       5.213       0.000       7.789       0.000      -0.000       5.985
 Calling FoFJK, ICntrl=    100127 FMM=F ISym2X=1 I1Cent= 0 IOpClX= 0 NMat=1 NMatS=1 NMatT=0.
 Full mass-weighted force constant matrix:
 Low frequencies ---    0.0017    0.0024    0.0026   54.4497   97.1727  105.7314
 Low frequencies --- 1667.1178 3811.4079 3934.6439
 Diagonal vibrational polarizability:
        0.0000000       0.1218177       1.0545313
 Harmonic frequencies (cm**-1), IR intensities (KM/Mole), Raman scattering
 activities (A**4/AMU), depolarization ratios for plane and unpolarized
 incident light, reduced masses (AMU), force constants (mDyne/A),
 and normal coordinates:
                      1                      2                      3
                     A1                     A1                     B2
 Frequencies --   1667.1178              3811.4079              3934.6439
 Red. masses --      1.0831                 1.0448                 1.0832
 Frc consts  --      1.7736                 8.9422                 9.8800
 IR Inten    --    106.4997                12.5866                70.0790
  Atom  AN      X      Y      Z        X      Y      Z        X      Y      Z
     1   8    -0.00   0.00  -0.07     0.00  -0.00   0.05    -0.00  -0.07  -0.00
     2   1     0.00   0.43   0.56     0.00   0.59  -0.39    -0.00   0.56  -0.43
     3   1     0.00  -0.43   0.56    -0.00  -0.59  -0.39     0.00   0.56   0.43

 -------------------
 - Thermochemistry -
 -------------------
 Temperature   298.150 Kelvin.  Pressure   1.00000 Atm.
 Atom     1 has atomic number  8 and mass  15.99491
 Atom     2 has atomic number  1 and mass   1.00783
 Atom     3 has atomic number  1 and mass   1.00783
 Molecular mass:    18.01056 amu.
 Principal axes and moments of inertia in atomic units:
                           1         2         3
     Eigenvalues --     2.16853   4.27327   6.44180
           X           -0.00000   0.00000   1.00000
           Y            1.00000  -0.00000  -0.00000
           Z            0.00000   1.00000  -0.00000
 This molecule is an asymmetric top.
 Rotational symmetry number  2.
 Rotational temperatures (Kelvin)     39.94130    20.26879    13.44562
 Rotational constants (GHZ):         832.24169   422.33295   280.16116
 Zero-point vibrational energy      56303.3 (Joules/Mol)
                                   13.45680 (Kcal/Mol)
 Vibrational temperatures:   2398.61  5483.77  5661.07
          (Kelvin)
 
 Zero-point correction=                           0.021445 (Hartree/Particle)
 Thermal correction to Energy=                    0.024280
 Thermal correction to Enthalpy=                  0.025224
 Thermal correction to Gibbs Free Energy=         0.003794
 Sum of electronic and zero-point Energies=            -76.362321
 Sum of electronic and thermal Energies=               -76.359486
 Sum of electronic and thermal Enthalpies=             -76.358542
 Sum of electronic and thermal Free Energies=          -76.379972
 
                     E (Thermal)             CV                S
                      KCal/Mol        Cal/Mol-Kelvin    Cal/Mol-Kelvin
 Total                   15.236              6.003             45.103
 Electronic               0.000              0.000              0.000
 Translational            0.889              2.981             34.608
 Rotational               0.889              2.981             10.489
 Vibrational             13.458              0.041              0.006
                       Q            Log10(Q)             Ln(Q)
 Total Bot       0.179788D-01         -1.745239         -4.018560
 Total V=0       0.131421D+09          8.118666         18.693919
 Vib (Bot)       0.136847D-09         -9.863765        -22.712159
 Vib (V=0)       0.100032D+01          0.000139          0.000321
 Electronic      0.100000D+01          0.000000          0.000000
 Translational   0.300431D+07          6.477745         14.915559
 Rotational      0.437302D+02          1.640782          3.778040
 ***** Axes restored to original set *****
 -------------------------------------------------------------------
 Center     Atomic                   Forces (Hartrees/Bohr)
 Number     Number              X              Y              Z
 -------------------------------------------------------------------
      1        8           0.000006450    0.000009126    0.000000000
      2        1          -0.000030332    0.000014595    0.000000000
      3        1           0.000023882   -0.000023721   -0.000000000
 -------------------------------------------------------------------
 Cartesian Forces:  Max     0.000030332 RMS     0.000016299
 FormGI is forming the generalized inverse of G from B-inverse, IUseBI=4.

 GradGradGradGradGradGradGradGradGradGradGradGradGradGradGradGradGradGrad
 Berny optimization.
 Internal  Forces:  Max     0.000029849 RMS     0.000029374
 Search for a local minimum.
 Step number   1 out of a maximum of    2
 All quantities printed in internal units (Hartrees-Bohrs-Radians)
 Second derivative matrix not updated -- analytic derivatives used.
 The second derivative matrix:
                          R1        R2        A1
           R1           0.53906
           R2          -0.00756   0.53906
           A1           0.02695   0.02695   0.16617
 ITU=  0
     Eigenvalues ---    0.16223   0.53543   0.54662
 Angle between quadratic step and forces=  32.33 degrees.
 Linear search not attempted -- first point.
 Iteration  1 RMS(Cart)=  0.00010866 RMS(Int)=  0.00000001
 Iteration  2 RMS(Cart)=  0.00000000 RMS(Int)=  0.00000000
 ClnCor:  largest displacement from symmetrization is 2.81D-15 for atom     3.
 Variable       Old X    -DE/DX   Delta X   Delta X   Delta X     New X
                                 (Linear)    (Quad)   (Total)
    R1        1.82523  -0.00003   0.00000  -0.00005  -0.00005   1.82518
    R2        1.82523  -0.00003   0.00000  -0.00005  -0.00005   1.82518
    A1        1.84704  -0.00003   0.00000  -0.00016  -0.00016   1.84688
         Item               Value     Threshold  Converged?
 Maximum Force            0.000030     0.000450     YES
 RMS     Force            0.000029     0.000300     YES
 Maximum Displacement     0.000117     0.001800     YES
 RMS     Displacement     0.000109     0.001200     YES
 Predicted change in Energy=-3.645687D-09
 Optimization completed.
    -- Stationary point found.
                           ----------------------------
                           !   Optimized Parameters   !
                           ! (Angstroms and Degrees)  !
 --------------------------                            --------------------------
 ! Name  Definition              Value          Derivative Info.                !
 --------------------------------------------------------------------------------
 ! R1    R(1,2)                  0.9659         -DE/DX =    0.0                 !
 ! R2    R(1,3)                  0.9659         -DE/DX =    0.0                 !
 ! A1    A(2,1,3)              105.8273         -DE/DX =    0.0                 !
 --------------------------------------------------------------------------------
 GradGradGradGradGradGradGradGradGradGradGradGradGradGradGradGradGradGrad


 ----------------------------------------------------------------------

 Electric dipole moment (input orientation):
 (Debye = 10**-18 statcoulomb cm , SI units = C m)
                  (au)            (Debye)         (10**-30 SI)
   Tot        0.893589D+00      0.227128D+01      0.757616D+01
   x          0.515730D+00      0.131086D+01      0.437254D+01
   y          0.729742D+00      0.185482D+01      0.618701D+01
   z          0.000000D+00      0.000000D+00      0.000000D+00

 Dipole polarizability, Alpha (input orientation).
 (esu units = cm**3 , SI units = C**2 m**2 J**-1)
 Alpha(0;0):
               (au)            (10**-24 esu)      (10**-40 SI)
   iso        0.656289D+01      0.972520D+00      0.108207D+01
   aniso      0.153861D+01      0.227999D+00      0.253683D+00
   xx         0.710921D+01      0.105348D+01      0.117215D+01
   yx        -0.666898D+00     -0.988241D-01     -0.109957D+00
   yy         0.663688D+01      0.983485D+00      0.109427D+01
   zx         0.000000D+00      0.000000D+00      0.000000D+00
   zy         0.000000D+00      0.000000D+00      0.000000D+00
   zz         0.594259D+01      0.880600D+00      0.979800D+00

 ----------------------------------------------------------------------

 Dipole orientation:
     8         -3.06870749          2.16874803         -3.26516651
     1         -1.87964716          1.32840327         -2.16451999
     1         -4.25776782          3.00909279         -2.16451999

 Electric dipole moment (dipole orientation):
 (Debye = 10**-18 statcoulomb cm , SI units = C m)
                  (au)            (Debye)         (10**-30 SI)
   Tot        0.893589D+00      0.227128D+01      0.757616D+01
   x          0.000000D+00      0.000000D+00      0.000000D+00
   y          0.000000D+00      0.000000D+00      0.000000D+00
   z          0.893589D+00      0.227128D+01      0.757616D+01

 Dipole polarizability, Alpha (dipole orientation).
 (esu units = cm**3 , SI units = C**2 m**2 J**-1)
 Alpha(0;0):
               (au)            (10**-24 esu)      (10**-40 SI)
   iso        0.656289D+01      0.972520D+00      0.108207D+01
   aniso      0.153861D+01      0.227999D+00      0.253683D+00
   xx         0.703493D+01      0.104247D+01      0.115990D+01
   yx        -0.771994D+00     -0.114398D+00     -0.127285D+00
   yy         0.648818D+01      0.961449D+00      0.106976D+01
   zx         0.000000D+00      0.000000D+00      0.000000D+00
   zy         0.000000D+00      0.000000D+00      0.000000D+00
   zz         0.616557D+01      0.913643D+00      0.101656D+01

 ----------------------------------------------------------------------
 Unable to Open any file for archive entry.
 1\1\GINC-N5\Freq\RM062X\6-31+G(d)\H2O1\NIKAMEL99\22-Apr-2022\0\\#N Geo
 m=AllCheck Guess=TCheck SCRF=Check GenChk RM062X/6-31+G(d) Freq\\water
 \\0,1\O,-2.6211113721,-0.2633834731,0.\H,-1.6557369983,-0.2324324624,0
 .\H,-2.9141842551,0.6569501251,0.\\Version=ES64L-G16RevC.01\State=1-A1
 \HF=-76.3837662\RMSD=3.770e-10\RMSF=1.630e-05\ZeroPoint=0.0214448\Ther
 mal=0.0242798\ETot=-76.3594864\HTot=-76.3585422\GTot=-76.3799719\Dipol
 e=0.5157304,0.7297417,0.\DipoleDeriv=-0.526652,0.055387,0.,0.055387,-0
 .4874249,0.,0.,0.,-0.8112597,0.1860392,-0.0436793,0.,-0.066445,0.32099
 92,0.,0.,0.,0.4056298,0.3406127,-0.0117077,0.,0.0110581,0.1664257,0.,0
 .,0.,0.4056298\Polar=7.1092062,-0.6668984,6.636884,0.,0.,5.9425852\Qua
 drupole=0.8875224,0.3437017,-1.2312241,-0.7678511,0.,0.\PG=C02V [C2(O1
 ),SGV(H2)]\NImag=0\\0.61611124,-0.11265126,0.53632744,0.,0.,0.00075730
 ,-0.52605802,0.01076602,0.,0.53950428,-0.05251215,-0.05016132,0.,0.000
 95037,0.04949759,0.,0.,-0.00037865,0.,0.,0.00036939,-0.09005323,0.1018
 8524,0.,-0.01344626,0.05156178,0.,0.10349948,0.16516341,-0.48616611,0.
 ,-0.01171639,0.00066373,0.,-0.15344702,0.48550238,0.,0.,-0.00037865,0.
 ,0.,0.00000926,0.,0.,0.00036939\\-0.00000645,-0.00000913,0.,0.00003033
 ,-0.00001459,0.,-0.00002388,0.00002372,0.\\\@
 The archive entry for this job was punched.


 KNOWLEDGE IS OF TWO KINDS:  WE KNOW A SUBJECT OURSELVES OR WE KNOW 
 WHERE WE CAN FIND INFORMATION UPON IT.

                                    -- SAMUEL JOHNSON
 Job cpu time:       0 days  0 hours  1 minutes 42.4 seconds.
 Elapsed time:       0 days  0 hours  0 minutes  3.2 seconds.
 File lengths (MBytes):  RWF=      6 Int=      0 D2E=      0 Chk=      1 Scr=      1
 Normal termination of Gaussian 16 at Fri Apr 22 11:40:06 2022.
