 Entering Gaussian System, Link 0=g16
 Initial command:
 /ichec/packages/gaussian/16c01/l1.exe "/scratch/global/Gau-22115.inp" -scrdir="/scratch/global/"
 Entering Link 1 = /ichec/packages/gaussian/16c01/l1.exe PID=     25056.
  
 Copyright (c) 1988-2019, Gaussian, Inc.  All Rights Reserved.
  
 This is part of the Gaussian(R) 16 program.  It is based on
 the Gaussian(R) 09 system (copyright 2009, Gaussian, Inc.),
 the Gaussian(R) 03 system (copyright 2003, Gaussian, Inc.),
 the Gaussian(R) 98 system (copyright 1998, Gaussian, Inc.),
 the Gaussian(R) 94 system (copyright 1995, Gaussian, Inc.),
 the Gaussian 92(TM) system (copyright 1992, Gaussian, Inc.),
 the Gaussian 90(TM) system (copyright 1990, Gaussian, Inc.),
 the Gaussian 88(TM) system (copyright 1988, Gaussian, Inc.),
 the Gaussian 86(TM) system (copyright 1986, Carnegie Mellon
 University), and the Gaussian 82(TM) system (copyright 1983,
 Carnegie Mellon University). Gaussian is a federally registered
 trademark of Gaussian, Inc.
  
 This software contains proprietary and confidential information,
 including trade secrets, belonging to Gaussian, Inc.
  
 This software is provided under written license and may be
 used, copied, transmitted, or stored only in accord with that
 written license.
  
 The following legend is applicable only to US Government
 contracts under FAR:
  
                    RESTRICTED RIGHTS LEGEND
  
 Use, reproduction and disclosure by the US Government is
 subject to restrictions as set forth in subparagraphs (a)
 and (c) of the Commercial Computer Software - Restricted
 Rights clause in FAR 52.227-19.
  
 Gaussian, Inc.
 340 Quinnipiac St., Bldg. 40, Wallingford CT 06492
  
  
 ---------------------------------------------------------------
 Warning -- This program may not be used in any manner that
 competes with the business of Gaussian, Inc. or will provide
 assistance to any competitor of Gaussian, Inc.  The licensee
 of this program is prohibited from giving any competitor of
 Gaussian, Inc. access to this program.  By using this program,
 the user acknowledges that Gaussian, Inc. is engaged in the
 business of creating and licensing software in the field of
 computational chemistry and represents and warrants to the
 licensee that it is not a competitor of Gaussian, Inc. and that
 it will not use this program in any manner prohibited above.
 ---------------------------------------------------------------
  

 Cite this work as:
 Gaussian 16, Revision C.01,
 M. J. Frisch, G. W. Trucks, H. B. Schlegel, G. E. Scuseria, 
 M. A. Robb, J. R. Cheeseman, G. Scalmani, V. Barone, 
 G. A. Petersson, H. Nakatsuji, X. Li, M. Caricato, A. V. Marenich, 
 J. Bloino, B. G. Janesko, R. Gomperts, B. Mennucci, H. P. Hratchian, 
 J. V. Ortiz, A. F. Izmaylov, J. L. Sonnenberg, D. Williams-Young, 
 F. Ding, F. Lipparini, F. Egidi, J. Goings, B. Peng, A. Petrone, 
 T. Henderson, D. Ranasinghe, V. G. Zakrzewski, J. Gao, N. Rega, 
 G. Zheng, W. Liang, M. Hada, M. Ehara, K. Toyota, R. Fukuda, 
 J. Hasegawa, M. Ishida, T. Nakajima, Y. Honda, O. Kitao, H. Nakai, 
 T. Vreven, K. Throssell, J. A. Montgomery, Jr., J. E. Peralta, 
 F. Ogliaro, M. J. Bearpark, J. J. Heyd, E. N. Brothers, K. N. Kudin, 
 V. N. Staroverov, T. A. Keith, R. Kobayashi, J. Normand, 
 K. Raghavachari, A. P. Rendell, J. C. Burant, S. S. Iyengar, 
 J. Tomasi, M. Cossi, J. M. Millam, M. Klene, C. Adamo, R. Cammi, 
 J. W. Ochterski, R. L. Martin, K. Morokuma, O. Farkas, 
 J. B. Foresman, and D. J. Fox, Gaussian, Inc., Wallingford CT, 2019.
 
 ******************************************
 Gaussian 16:  ES64L-G16RevC.01  3-Jul-2019
                22-Apr-2022 
 ******************************************
 %nprocshared=40
 Will use up to   40 processors via shared memory.
 %mem=100GB
 --------------------------
 # m062x/6-31+g(d) opt freq
 --------------------------
 1/18=20,19=15,26=3,38=1/1,3;
 2/9=110,12=2,17=6,18=5,40=1/2;
 3/5=1,6=6,7=11,11=2,25=1,30=1,71=1,74=-55/1,2,3;
 4//1;
 5/5=2,38=5/2;
 6/7=2,8=2,9=2,10=2,28=1/1;
 7//1,2,3,16;
 1/18=20,19=15,26=3/3(2);
 2/9=110/2;
 99//99;
 2/9=110/2;
 3/5=1,6=6,7=11,11=2,25=1,30=1,71=1,74=-55/1,2,3;
 4/5=5,16=3,69=1/1;
 5/5=2,38=5/2;
 7//1,2,3,16;
 1/18=20,19=15,26=3/3(-5);
 2/9=110/2;
 6/7=2,8=2,9=2,10=2,19=2,28=1/1;
 99/9=1/99;
 ---
 CO2
 ---
 Symbolic Z-matrix:
 Charge =  0 Multiplicity = 1
 C                     0.05829   1.07591  -0.99359 
 O                     1.31669   1.07591  -0.99359 
 O                    -1.20011   1.07591  -0.99359 
 

 GradGradGradGradGradGradGradGradGradGradGradGradGradGradGradGradGradGrad
 Berny optimization.
 Initialization pass.
                           ----------------------------
                           !    Initial Parameters    !
                           ! (Angstroms and Degrees)  !
 --------------------------                            --------------------------
 ! Name  Definition              Value          Derivative Info.                !
 --------------------------------------------------------------------------------
 ! R1    R(1,2)                  1.2584         estimate D2E/DX2                !
 ! R2    R(1,3)                  1.2584         estimate D2E/DX2                !
 ! A1    L(2,1,3,-2,-1)        180.0            estimate D2E/DX2                !
 ! A2    L(2,1,3,-3,-2)        180.0            estimate D2E/DX2                !
 --------------------------------------------------------------------------------
 Trust Radius=3.00D-01 FncErr=1.00D-07 GrdErr=1.00D-06 EigMax=2.50D+02 EigMin=1.00D-04
 Number of steps in this run=     20 maximum allowed number of steps=    100.
 GradGradGradGradGradGradGradGradGradGradGradGradGradGradGradGradGradGrad

                          Input orientation:                          
 ---------------------------------------------------------------------
 Center     Atomic      Atomic             Coordinates (Angstroms)
 Number     Number       Type             X           Y           Z
 ---------------------------------------------------------------------
      1          6           0        0.058287    1.075911   -0.993595
      2          8           0        1.316687    1.075911   -0.993595
      3          8           0       -1.200113    1.075911   -0.993595
 ---------------------------------------------------------------------
                    Distance matrix (angstroms):
                    1          2          3
     1  C    0.000000
     2  O    1.258400   0.000000
     3  O    1.258400   2.516800   0.000000
 Stoichiometry    CO2
 Framework group  D*H[O(C),C*(O.O)]
 Deg. of freedom     1
 Full point group                 D*H     NOp   8
 Largest Abelian subgroup         D2H     NOp   8
 Largest concise Abelian subgroup C2      NOp   2
                         Standard orientation:                         
 ---------------------------------------------------------------------
 Center     Atomic      Atomic             Coordinates (Angstroms)
 Number     Number       Type             X           Y           Z
 ---------------------------------------------------------------------
      1          6           0        0.000000    0.000000    0.000000
      2          8           0        0.000000    0.000000    1.258400
      3          8           0        0.000000    0.000000   -1.258400
 ---------------------------------------------------------------------
 Rotational constants (GHZ):           0.0000000           9.9762623           9.9762623
 Standard basis: 6-31+G(d) (6D, 7F)
 There are    17 symmetry adapted cartesian basis functions of AG  symmetry.
 There are     2 symmetry adapted cartesian basis functions of B1G symmetry.
 There are     5 symmetry adapted cartesian basis functions of B2G symmetry.
 There are     5 symmetry adapted cartesian basis functions of B3G symmetry.
 There are     1 symmetry adapted cartesian basis functions of AU  symmetry.
 There are    13 symmetry adapted cartesian basis functions of B1U symmetry.
 There are     7 symmetry adapted cartesian basis functions of B2U symmetry.
 There are     7 symmetry adapted cartesian basis functions of B3U symmetry.
 There are    17 symmetry adapted basis functions of AG  symmetry.
 There are     2 symmetry adapted basis functions of B1G symmetry.
 There are     5 symmetry adapted basis functions of B2G symmetry.
 There are     5 symmetry adapted basis functions of B3G symmetry.
 There are     1 symmetry adapted basis functions of AU  symmetry.
 There are    13 symmetry adapted basis functions of B1U symmetry.
 There are     7 symmetry adapted basis functions of B2U symmetry.
 There are     7 symmetry adapted basis functions of B3U symmetry.
    57 basis functions,    96 primitive gaussians,    57 cartesian basis functions
    11 alpha electrons       11 beta electrons
       nuclear repulsion energy        53.8260354401 Hartrees.
 NAtoms=    3 NActive=    3 NUniq=    2 SFac= 2.25D+00 NAtFMM=   60 NAOKFM=F Big=F
 Integral buffers will be    131072 words long.
 Raffenetti 2 integral format.
 Two-electron integral symmetry is turned on.
 One-electron integrals computed using PRISM.
 NBasis=    57 RedAO= T EigKep=  1.49D-03  NBF=    17     2     5     5     1    13     7     7
 NBsUse=    57 1.00D-06 EigRej= -1.00D+00 NBFU=    17     2     5     5     1    13     7     7
 ExpMin= 4.38D-02 ExpMax= 5.48D+03 ExpMxC= 8.25D+02 IAcc=3 IRadAn=         5 AccDes= 0.00D+00
 Harris functional with IExCor= 1009 and IRadAn=       5 diagonalized for initial guess.
 HarFok:  IExCor= 1009 AccDes= 0.00D+00 IRadAn=         5 IDoV= 1 UseB2=F ITyADJ=14
 ICtDFT=  3500011 ScaDFX=  1.000000  1.000000  1.000000  1.000000
 FoFCou: FMM=F IPFlag=           0 FMFlag=      100000 FMFlg1=           0
         NFxFlg=           0 DoJE=T BraDBF=F KetDBF=T FulRan=T
         wScrn=  0.000000 ICntrl=       500 IOpCl=  0 I1Cent=   200000004 NGrid=           0
         NMat0=    1 NMatS0=      1 NMatT0=    0 NMatD0=    1 NMtDS0=    0 NMtDT0=    0
 Petite list used in FoFCou.
 Initial guess orbital symmetries:
       Occupied  (SGU) (SGG) (SGG) (SGG) (SGU) (SGG) (SGU) (PIU)
                 (PIU) (PIG) (PIG)
       Virtual   (PIU) (PIU) (SGG) (SGU) (PIU) (PIU) (SGG) (SGG)
                 (PIG) (PIG) (SGU) (PIU) (PIU) (SGU) (SGG) (SGU)
                 (PIU) (PIU) (SGU) (SGG) (PIG) (PIG) (SGG) (PIU)
                 (PIU) (SGU) (PIG) (PIG) (SGG) (DLTG) (DLTG) (DLTU)
                 (DLTU) (DLTG) (DLTG) (SGU) (PIU) (PIU) (SGG) (PIG)
                 (PIG) (SGU) (SGG) (SGG) (SGG) (SGU)
 The electronic state of the initial guess is 1-SGG.
 Keep R1 ints in memory in symmetry-blocked form, NReq=36639891.
 Requested convergence on RMS density matrix=1.00D-08 within 128 cycles.
 Requested convergence on MAX density matrix=1.00D-06.
 Requested convergence on             energy=1.00D-06.
 No special actions if energy rises.
 SCF Done:  E(RM062X) =  -188.484194855     A.U. after    9 cycles
            NFock=  9  Conv=0.26D-08     -V/T= 2.0120

 **********************************************************************

            Population analysis using the SCF Density.

 **********************************************************************

 Orbital symmetries:
       Occupied  (SGU) (SGG) (SGG) (SGG) (SGU) (SGG) (SGU) (PIU)
                 (PIU) (PIG) (PIG)
       Virtual   (SGG) (PIU) (PIU) (SGU) (PIU) (PIU) (SGG) (SGG)
                 (PIG) (PIG) (SGU) (PIU) (PIU) (SGU) (SGG) (PIU)
                 (PIU) (SGU) (SGU) (SGG) (PIG) (PIG) (SGG) (PIU)
                 (PIU) (SGU) (PIG) (PIG) (DLTG) (DLTG) (SGG) (DLTU)
                 (DLTU) (DLTG) (DLTG) (SGU) (PIU) (PIU) (SGG) (PIG)
                 (PIG) (SGG) (SGU) (SGG) (SGG) (SGU)
 The electronic state is 1-SGG.
 Alpha  occ. eigenvalues --  -19.75994 -19.75992 -10.79688  -1.25646  -1.20964
 Alpha  occ. eigenvalues --   -0.67989  -0.60344  -0.57838  -0.57838  -0.44747
 Alpha  occ. eigenvalues --   -0.44747
 Alpha virt. eigenvalues --   -0.01102   0.01065   0.01065   0.05320   0.05423
 Alpha virt. eigenvalues --    0.05423   0.12316   0.18176   0.20630   0.20630
 Alpha virt. eigenvalues --    0.24768   0.28093   0.28093   0.32011   0.33305
 Alpha virt. eigenvalues --    0.68825   0.68825   0.73343   0.79849   1.05385
 Alpha virt. eigenvalues --    1.15517   1.15517   1.18878   1.29217   1.29217
 Alpha virt. eigenvalues --    1.34294   1.42171   1.42171   1.45953   1.45953
 Alpha virt. eigenvalues --    1.47521   1.77805   1.77805   1.99581   1.99581
 Alpha virt. eigenvalues --    1.99776   2.05695   2.05695   2.53878   2.85112
 Alpha virt. eigenvalues --    2.85112   3.15979   3.16099   4.02217   4.47162
 Alpha virt. eigenvalues --    4.57869
          Condensed to atoms (all electrons):
               1          2          3
     1  C    4.482056   0.381956   0.381956
     2  O    0.381956   8.093822  -0.098762
     3  O    0.381956  -0.098762   8.093822
 Mulliken charges:
               1
     1  C    0.754032
     2  O   -0.377016
     3  O   -0.377016
 Sum of Mulliken charges =  -0.00000
 Mulliken charges with hydrogens summed into heavy atoms:
               1
     1  C    0.754032
     2  O   -0.377016
     3  O   -0.377016
 Electronic spatial extent (au):  <R**2>=            128.2284
 Charge=             -0.0000 electrons
 Dipole moment (field-independent basis, Debye):
    X=             -0.0000    Y=             -0.0000    Z=             -0.0000  Tot=              0.0000
 Quadrupole moment (field-independent basis, Debye-Ang):
   XX=            -15.3434   YY=            -15.3434   ZZ=            -20.0853
   XY=              0.0000   XZ=              0.0000   YZ=              0.0000
 Traceless Quadrupole moment (field-independent basis, Debye-Ang):
   XX=              1.5806   YY=              1.5806   ZZ=             -3.1613
   XY=              0.0000   XZ=              0.0000   YZ=              0.0000
 Octapole moment (field-independent basis, Debye-Ang**2):
  XXX=             -0.0000  YYY=             -0.0000  ZZZ=              0.0000  XYY=             -0.0000
  XXY=             -0.0000  XXZ=             -0.0000  XZZ=             -0.0000  YZZ=              0.0000
  YYZ=              0.0000  XYZ=              0.0000
 Hexadecapole moment (field-independent basis, Debye-Ang**3):
 XXXX=            -12.6776 YYYY=            -12.6776 ZZZZ=           -119.9770 XXXY=              0.0000
 XXXZ=              0.0000 YYYX=              0.0000 YYYZ=              0.0000 ZZZX=              0.0000
 ZZZY=              0.0000 XXYY=             -4.2259 XXZZ=            -22.2249 YYZZ=            -22.2249
 XXYZ=              0.0000 YYXZ=              0.0000 ZZXY=             -0.0000
 N-N= 5.382603544005D+01 E-N=-5.497190138271D+02  KE= 1.862417672997D+02
 Symmetry AG   KE= 1.006845516764D+02
 Symmetry B1G  KE= 7.808948317747D-34
 Symmetry B2G  KE= 4.746331630637D+00
 Symmetry B3G  KE= 4.746331630637D+00
 Symmetry AU   KE= 1.451730420524D-34
 Symmetry B1U  KE= 6.885198381520D+01
 Symmetry B2U  KE= 3.606284273405D+00
 Symmetry B3U  KE= 3.606284273405D+00
 Calling FoFJK, ICntrl=      2127 FMM=F ISym2X=1 I1Cent= 0 IOpClX= 0 NMat=1 NMatS=1 NMatT=0.
 ***** Axes restored to original set *****
 -------------------------------------------------------------------
 Center     Atomic                   Forces (Hartrees/Bohr)
 Number     Number              X              Y              Z
 -------------------------------------------------------------------
      1        6           0.000000000    0.000000000   -0.000000000
      2        8          -0.157894154   -0.000000000    0.000000000
      3        8           0.157894154   -0.000000000    0.000000000
 -------------------------------------------------------------------
 Cartesian Forces:  Max     0.157894154 RMS     0.074432018

 GradGradGradGradGradGradGradGradGradGradGradGradGradGradGradGradGradGrad
 Berny optimization.
 FormGI is forming the generalized inverse of G from B-inverse, IUseBI=4.
 Internal  Forces:  Max     0.157894154 RMS     0.111648027
 Search for a local minimum.
 Step number   1 out of a maximum of   20
 All quantities printed in internal units (Hartrees-Bohrs-Radians)
 Mixed Optimization -- RFO/linear search
 Second derivative matrix not updated -- first step.
 The second derivative matrix:
                          R1        R2        A1        A2
           R1           0.80209
           R2           0.00000   0.80209
           A1           0.00000   0.00000   0.03565
           A2           0.00000   0.00000   0.00000   0.03565
 ITU=  0
     Eigenvalues ---    0.03565   0.03565   0.80209   0.80209
 RFO step:  Lambda=-5.79738891D-02 EMin= 3.56487692D-02
 Linear search not attempted -- first point.
 Iteration  1 RMS(Cart)=  0.12981397 RMS(Int)=  0.00000000
 Iteration  2 RMS(Cart)=  0.00000000 RMS(Int)=  0.00000000
 ClnCor:  largest displacement from symmetrization is 7.78D-14 for atom     1.
 Variable       Old X    -DE/DX   Delta X   Delta X   Delta X     New X
                                 (Linear)    (Quad)   (Total)
    R1        2.37803  -0.15789   0.00000  -0.18358  -0.18358   2.19445
    R2        2.37803  -0.15789   0.00000  -0.18358  -0.18358   2.19445
    A1        3.14159  -0.00000   0.00000  -0.00000   0.00000   3.14159
    A2        3.14159  -0.00000   0.00000  -0.00000   0.00000   3.14159
         Item               Value     Threshold  Converged?
 Maximum Force            0.157894     0.000450     NO 
 RMS     Force            0.111648     0.000300     NO 
 Maximum Displacement     0.183585     0.001800     NO 
 RMS     Displacement     0.129814     0.001200     NO 
 Predicted change in Energy=-3.094086D-02
 GradGradGradGradGradGradGradGradGradGradGradGradGradGradGradGradGradGrad

                          Input orientation:                          
 ---------------------------------------------------------------------
 Center     Atomic      Atomic             Coordinates (Angstroms)
 Number     Number       Type             X           Y           Z
 ---------------------------------------------------------------------
      1          6           0        0.058287    1.075911   -0.993595
      2          8           0        1.219538    1.075911   -0.993595
      3          8           0       -1.102965    1.075911   -0.993595
 ---------------------------------------------------------------------
                    Distance matrix (angstroms):
                    1          2          3
     1  C    0.000000
     2  O    1.161251   0.000000
     3  O    1.161251   2.322502   0.000000
 Stoichiometry    CO2
 Framework group  D*H[O(C),C*(O.O)]
 Deg. of freedom     1
 Full point group                 D*H     NOp   8
 Largest Abelian subgroup         D2H     NOp   8
 Largest concise Abelian subgroup C2      NOp   2
                         Standard orientation:                         
 ---------------------------------------------------------------------
 Center     Atomic      Atomic             Coordinates (Angstroms)
 Number     Number       Type             X           Y           Z
 ---------------------------------------------------------------------
      1          6           0        0.000000    0.000000    0.000000
      2          8           0        0.000000    0.000000    1.161251
      3          8           0        0.000000    0.000000   -1.161251
 ---------------------------------------------------------------------
 Rotational constants (GHZ):           0.0000000          11.7152874          11.7152874
 Standard basis: 6-31+G(d) (6D, 7F)
 There are    17 symmetry adapted cartesian basis functions of AG  symmetry.
 There are     2 symmetry adapted cartesian basis functions of B1G symmetry.
 There are     5 symmetry adapted cartesian basis functions of B2G symmetry.
 There are     5 symmetry adapted cartesian basis functions of B3G symmetry.
 There are     1 symmetry adapted cartesian basis functions of AU  symmetry.
 There are    13 symmetry adapted cartesian basis functions of B1U symmetry.
 There are     7 symmetry adapted cartesian basis functions of B2U symmetry.
 There are     7 symmetry adapted cartesian basis functions of B3U symmetry.
 There are    17 symmetry adapted basis functions of AG  symmetry.
 There are     2 symmetry adapted basis functions of B1G symmetry.
 There are     5 symmetry adapted basis functions of B2G symmetry.
 There are     5 symmetry adapted basis functions of B3G symmetry.
 There are     1 symmetry adapted basis functions of AU  symmetry.
 There are    13 symmetry adapted basis functions of B1U symmetry.
 There are     7 symmetry adapted basis functions of B2U symmetry.
 There are     7 symmetry adapted basis functions of B3U symmetry.
    57 basis functions,    96 primitive gaussians,    57 cartesian basis functions
    11 alpha electrons       11 beta electrons
       nuclear repulsion energy        58.3290546149 Hartrees.
 NAtoms=    3 NActive=    3 NUniq=    2 SFac= 2.25D+00 NAtFMM=   60 NAOKFM=F Big=F
 Integral buffers will be    131072 words long.
 Raffenetti 2 integral format.
 Two-electron integral symmetry is turned on.
 One-electron integrals computed using PRISM.
 NBasis=    57 RedAO= T EigKep=  1.01D-03  NBF=    17     2     5     5     1    13     7     7
 NBsUse=    57 1.00D-06 EigRej= -1.00D+00 NBFU=    17     2     5     5     1    13     7     7
 Initial guess from the checkpoint file:  "/scratch/global/Gau-25056.chk"
 B after Tr=     0.000000    0.000000    0.000000
         Rot=    1.000000    0.000000    0.000000    0.000000 Ang=   0.00 deg.
 Initial guess orbital symmetries:
       Occupied  (SGU) (SGG) (SGG) (SGG) (SGU) (SGG) (SGU) (PIU)
                 (PIU) (PIG) (PIG)
       Virtual   (SGG) (PIU) (PIU) (SGU) (PIU) (PIU) (SGG) (SGG)
                 (PIG) (PIG) (SGU) (PIU) (PIU) (SGU) (SGG) (PIU)
                 (PIU) (SGU) (SGU) (SGG) (PIG) (PIG) (SGG) (PIU)
                 (PIU) (SGU) (PIG) (PIG) (DLTG) (DLTG) (SGG) (DLTU)
                 (DLTU) (DLTG) (DLTG) (SGU) (PIU) (PIU) (SGG) (PIG)
                 (PIG) (SGG) (SGU) (SGG) (SGG) (SGU)
 ExpMin= 4.38D-02 ExpMax= 5.48D+03 ExpMxC= 8.25D+02 IAcc=3 IRadAn=         5 AccDes= 0.00D+00
 Harris functional with IExCor= 1009 and IRadAn=       5 diagonalized for initial guess.
 HarFok:  IExCor= 1009 AccDes= 0.00D+00 IRadAn=         5 IDoV= 1 UseB2=F ITyADJ=14
 ICtDFT=  3500011 ScaDFX=  1.000000  1.000000  1.000000  1.000000
 FoFCou: FMM=F IPFlag=           0 FMFlag=      100000 FMFlg1=           0
         NFxFlg=           0 DoJE=T BraDBF=F KetDBF=T FulRan=T
         wScrn=  0.000000 ICntrl=       500 IOpCl=  0 I1Cent=   200000004 NGrid=           0
         NMat0=    1 NMatS0=      1 NMatT0=    0 NMatD0=    1 NMtDS0=    0 NMtDT0=    0
 Petite list used in FoFCou.
 Keep R1 ints in memory in symmetry-blocked form, NReq=36639891.
 Requested convergence on RMS density matrix=1.00D-08 within 128 cycles.
 Requested convergence on MAX density matrix=1.00D-06.
 Requested convergence on             energy=1.00D-06.
 No special actions if energy rises.
 SCF Done:  E(RM062X) =  -188.516028701     A.U. after    9 cycles
            NFock=  9  Conv=0.39D-08     -V/T= 2.0081
 Calling FoFJK, ICntrl=      2127 FMM=F ISym2X=1 I1Cent= 0 IOpClX= 0 NMat=1 NMatS=1 NMatT=0.
 ***** Axes restored to original set *****
 -------------------------------------------------------------------
 Center     Atomic                   Forces (Hartrees/Bohr)
 Number     Number              X              Y              Z
 -------------------------------------------------------------------
      1        6          -0.000000000    0.000000000   -0.000000000
      2        8           0.003525796   -0.000000000   -0.000000000
      3        8          -0.003525796   -0.000000000    0.000000000
 -------------------------------------------------------------------
 Cartesian Forces:  Max     0.003525796 RMS     0.001662076

 GradGradGradGradGradGradGradGradGradGradGradGradGradGradGradGradGradGrad
 Berny optimization.
 Using GEDIIS/GDIIS optimizer.
 Internal  Forces:  Max     0.003525796 RMS     0.002493114
 Search for a local minimum.
 Step number   2 out of a maximum of   20
 All quantities printed in internal units (Hartrees-Bohrs-Radians)
 Mixed Optimization -- RFO/linear search
 Update second derivatives using D2CorX and points    1    2
 DE= -3.18D-02 DEPred=-3.09D-02 R= 1.03D+00
 TightC=F SS=  1.41D+00  RLast= 2.60D-01 DXNew= 5.0454D-01 7.7888D-01
 Trust test= 1.03D+00 RLast= 2.60D-01 DXMaxT set to 5.05D-01
 The second derivative matrix:
                          R1        R2        A1        A2
           R1           0.84068
           R2           0.03859   0.84068
           A1          -0.00000  -0.00000   0.03565
           A2          -0.00000  -0.00000   0.00000   0.03565
 ITU=  1  0
 Use linear search instead of GDIIS.
     Eigenvalues ---    0.03565   0.03565   0.80209   0.87927
 RFO step:  Lambda= 0.00000000D+00 EMin= 3.56487692D-02
 Quartic linear search produced a step of -0.01596.
 Iteration  1 RMS(Cart)=  0.00207245 RMS(Int)=  0.00000000
 Iteration  2 RMS(Cart)=  0.00000000 RMS(Int)=  0.00000000
 ClnCor:  largest displacement from symmetrization is 2.43D-13 for atom     1.
 Variable       Old X    -DE/DX   Delta X   Delta X   Delta X     New X
                                 (Linear)    (Quad)   (Total)
    R1        2.19445   0.00353   0.00293  -0.00000   0.00293   2.19738
    R2        2.19445   0.00353   0.00293   0.00000   0.00293   2.19738
    A1        3.14159  -0.00000   0.00000  -0.00000   0.00000   3.14159
    A2        3.14159  -0.00000   0.00000  -0.00000   0.00000   3.14159
         Item               Value     Threshold  Converged?
 Maximum Force            0.003526     0.000450     NO 
 RMS     Force            0.002493     0.000300     NO 
 Maximum Displacement     0.002931     0.001800     NO 
 RMS     Displacement     0.002072     0.001200     NO 
 Predicted change in Energy=-1.311443D-05
 GradGradGradGradGradGradGradGradGradGradGradGradGradGradGradGradGradGrad

                          Input orientation:                          
 ---------------------------------------------------------------------
 Center     Atomic      Atomic             Coordinates (Angstroms)
 Number     Number       Type             X           Y           Z
 ---------------------------------------------------------------------
      1          6           0        0.058287    1.075911   -0.993595
      2          8           0        1.221089    1.075911   -0.993595
      3          8           0       -1.104516    1.075911   -0.993595
 ---------------------------------------------------------------------
                    Distance matrix (angstroms):
                    1          2          3
     1  C    0.000000
     2  O    1.162802   0.000000
     3  O    1.162802   2.325604   0.000000
 Stoichiometry    CO2
 Framework group  D*H[O(C),C*(O.O)]
 Deg. of freedom     1
 Full point group                 D*H     NOp   8
 Largest Abelian subgroup         D2H     NOp   8
 Largest concise Abelian subgroup C2      NOp   2
                         Standard orientation:                         
 ---------------------------------------------------------------------
 Center     Atomic      Atomic             Coordinates (Angstroms)
 Number     Number       Type             X           Y           Z
 ---------------------------------------------------------------------
      1          6           0        0.000000    0.000000    0.000000
      2          8           0        0.000000    0.000000    1.162802
      3          8           0        0.000000    0.000000   -1.162802
 ---------------------------------------------------------------------
 Rotational constants (GHZ):           0.0000000          11.6840563          11.6840563
 Standard basis: 6-31+G(d) (6D, 7F)
 There are    17 symmetry adapted cartesian basis functions of AG  symmetry.
 There are     2 symmetry adapted cartesian basis functions of B1G symmetry.
 There are     5 symmetry adapted cartesian basis functions of B2G symmetry.
 There are     5 symmetry adapted cartesian basis functions of B3G symmetry.
 There are     1 symmetry adapted cartesian basis functions of AU  symmetry.
 There are    13 symmetry adapted cartesian basis functions of B1U symmetry.
 There are     7 symmetry adapted cartesian basis functions of B2U symmetry.
 There are     7 symmetry adapted cartesian basis functions of B3U symmetry.
 There are    17 symmetry adapted basis functions of AG  symmetry.
 There are     2 symmetry adapted basis functions of B1G symmetry.
 There are     5 symmetry adapted basis functions of B2G symmetry.
 There are     5 symmetry adapted basis functions of B3G symmetry.
 There are     1 symmetry adapted basis functions of AU  symmetry.
 There are    13 symmetry adapted basis functions of B1U symmetry.
 There are     7 symmetry adapted basis functions of B2U symmetry.
 There are     7 symmetry adapted basis functions of B3U symmetry.
    57 basis functions,    96 primitive gaussians,    57 cartesian basis functions
    11 alpha electrons       11 beta electrons
       nuclear repulsion energy        58.2512546613 Hartrees.
 NAtoms=    3 NActive=    3 NUniq=    2 SFac= 2.25D+00 NAtFMM=   60 NAOKFM=F Big=F
 Integral buffers will be    131072 words long.
 Raffenetti 2 integral format.
 Two-electron integral symmetry is turned on.
 One-electron integrals computed using PRISM.
 NBasis=    57 RedAO= T EigKep=  1.01D-03  NBF=    17     2     5     5     1    13     7     7
 NBsUse=    57 1.00D-06 EigRej= -1.00D+00 NBFU=    17     2     5     5     1    13     7     7
 Initial guess from the checkpoint file:  "/scratch/global/Gau-25056.chk"
 B after Tr=     0.000000    0.000000    0.000000
         Rot=    1.000000    0.000000    0.000000    0.000000 Ang=   0.00 deg.
 Initial guess orbital symmetries:
       Occupied  (SGU) (SGG) (SGG) (SGG) (SGU) (SGG) (SGU) (PIU)
                 (PIU) (PIG) (PIG)
       Virtual   (SGG) (PIU) (PIU) (SGU) (PIU) (PIU) (SGG) (SGG)
                 (PIG) (PIG) (SGU) (PIU) (PIU) (SGU) (SGG) (PIU)
                 (PIU) (SGU) (SGU) (SGG) (PIG) (PIG) (SGG) (PIU)
                 (PIU) (SGU) (DLTG) (DLTG) (PIG) (PIG) (SGG) (DLTU)
                 (DLTU) (DLTG) (DLTG) (SGU) (PIU) (PIU) (SGG) (PIG)
                 (PIG) (SGU) (SGG) (SGG) (SGG) (SGU)
 Keep R1 ints in memory in symmetry-blocked form, NReq=36639891.
 Requested convergence on RMS density matrix=1.00D-08 within 128 cycles.
 Requested convergence on MAX density matrix=1.00D-06.
 Requested convergence on             energy=1.00D-06.
 No special actions if energy rises.
 SCF Done:  E(RM062X) =  -188.516038939     A.U. after    7 cycles
            NFock=  7  Conv=0.35D-08     -V/T= 2.0081
 Calling FoFJK, ICntrl=      2127 FMM=F ISym2X=1 I1Cent= 0 IOpClX= 0 NMat=1 NMatS=1 NMatT=0.
 ***** Axes restored to original set *****
 -------------------------------------------------------------------
 Center     Atomic                   Forces (Hartrees/Bohr)
 Number     Number              X              Y              Z
 -------------------------------------------------------------------
      1        6          -0.000000000    0.000000000   -0.000000000
      2        8          -0.000026519   -0.000000000    0.000000000
      3        8           0.000026519   -0.000000000    0.000000000
 -------------------------------------------------------------------
 Cartesian Forces:  Max     0.000026519 RMS     0.000012501

 GradGradGradGradGradGradGradGradGradGradGradGradGradGradGradGradGradGrad
 Berny optimization.
 Using GEDIIS/GDIIS optimizer.
 Internal  Forces:  Max     0.000026519 RMS     0.000018752
 Search for a local minimum.
 Step number   3 out of a maximum of   20
 All quantities printed in internal units (Hartrees-Bohrs-Radians)
 Mixed Optimization -- En-DIIS/RFO-DIIS
 Update second derivatives using D2CorX and points    1    2    3
 DE= -1.02D-05 DEPred=-1.31D-05 R= 7.81D-01
 TightC=F SS=  1.41D+00  RLast= 4.14D-03 DXNew= 8.4853D-01 1.2435D-02
 Trust test= 7.81D-01 RLast= 4.14D-03 DXMaxT set to 5.05D-01
 The second derivative matrix:
                          R1        R2        A1        A2
           R1           1.00706
           R2           0.20497   1.00706
           A1           0.00000   0.00000   0.03565
           A2          -0.00000  -0.00000  -0.00000   0.03565
 ITU=  1  1  0
 Use linear search instead of GDIIS.
     Eigenvalues ---    0.03565   0.03565   0.80209   1.21203
 RFO step:  Lambda= 0.00000000D+00 EMin= 3.56487692D-02
 Quartic linear search produced a step of -0.00750.
 Iteration  1 RMS(Cart)=  0.00001555 RMS(Int)=  0.00000000
 Iteration  2 RMS(Cart)=  0.00000000 RMS(Int)=  0.00000000
 ClnCor:  largest displacement from symmetrization is 4.17D-13 for atom     1.
 Variable       Old X    -DE/DX   Delta X   Delta X   Delta X     New X
                                 (Linear)    (Quad)   (Total)
    R1        2.19738  -0.00003  -0.00002   0.00000  -0.00002   2.19736
    R2        2.19738  -0.00003  -0.00002  -0.00000  -0.00002   2.19736
    A1        3.14159  -0.00000   0.00000  -0.00000   0.00000   3.14159
    A2        3.14159  -0.00000   0.00000  -0.00000   0.00000   3.14159
         Item               Value     Threshold  Converged?
 Maximum Force            0.000027     0.000450     YES
 RMS     Force            0.000019     0.000300     YES
 Maximum Displacement     0.000022     0.001800     YES
 RMS     Displacement     0.000016     0.001200     YES
 Predicted change in Energy=-5.802128D-10
 Optimization completed.
    -- Stationary point found.
                           ----------------------------
                           !   Optimized Parameters   !
                           ! (Angstroms and Degrees)  !
 --------------------------                            --------------------------
 ! Name  Definition              Value          Derivative Info.                !
 --------------------------------------------------------------------------------
 ! R1    R(1,2)                  1.1628         -DE/DX =    0.0                 !
 ! R2    R(1,3)                  1.1628         -DE/DX =    0.0                 !
 ! A1    L(2,1,3,-2,-1)        180.0            -DE/DX =    0.0                 !
 ! A2    L(2,1,3,-3,-2)        180.0            -DE/DX =    0.0                 !
 --------------------------------------------------------------------------------
 GradGradGradGradGradGradGradGradGradGradGradGradGradGradGradGradGradGrad

                          Input orientation:                          
 ---------------------------------------------------------------------
 Center     Atomic      Atomic             Coordinates (Angstroms)
 Number     Number       Type             X           Y           Z
 ---------------------------------------------------------------------
      1          6           0        0.058287    1.075911   -0.993595
      2          8           0        1.221089    1.075911   -0.993595
      3          8           0       -1.104516    1.075911   -0.993595
 ---------------------------------------------------------------------
                    Distance matrix (angstroms):
                    1          2          3
     1  C    0.000000
     2  O    1.162802   0.000000
     3  O    1.162802   2.325604   0.000000
 Stoichiometry    CO2
 Framework group  D*H[O(C),C*(O.O)]
 Deg. of freedom     1
 Full point group                 D*H     NOp   8
 Largest Abelian subgroup         D2H     NOp   8
 Largest concise Abelian subgroup C2      NOp   2
                         Standard orientation:                         
 ---------------------------------------------------------------------
 Center     Atomic      Atomic             Coordinates (Angstroms)
 Number     Number       Type             X           Y           Z
 ---------------------------------------------------------------------
      1          6           0        0.000000    0.000000    0.000000
      2          8           0        0.000000    0.000000    1.162802
      3          8           0        0.000000    0.000000   -1.162802
 ---------------------------------------------------------------------
 Rotational constants (GHZ):           0.0000000          11.6840563          11.6840563

 **********************************************************************

            Population analysis using the SCF Density.

 **********************************************************************

 Orbital symmetries:
       Occupied  (SGU) (SGG) (SGG) (SGG) (SGU) (SGG) (SGU) (PIU)
                 (PIU) (PIG) (PIG)
       Virtual   (SGG) (PIU) (PIU) (SGU) (PIU) (PIU) (SGG) (SGG)
                 (PIG) (PIG) (SGU) (PIU) (PIU) (SGU) (SGG) (PIU)
                 (PIU) (SGU) (SGU) (SGG) (PIG) (PIG) (SGG) (PIU)
                 (PIU) (SGU) (DLTG) (DLTG) (PIG) (PIG) (SGG) (DLTU)
                 (DLTU) (DLTG) (DLTG) (SGU) (PIU) (PIU) (SGG) (PIG)
                 (PIG) (SGU) (SGG) (SGG) (SGG) (SGU)
 The electronic state is 1-SGG.
 Alpha  occ. eigenvalues --  -19.73957 -19.73956 -10.75894  -1.30165  -1.25118
 Alpha  occ. eigenvalues --   -0.66469  -0.61234  -0.61099  -0.61099  -0.45117
 Alpha  occ. eigenvalues --   -0.45117
 Alpha virt. eigenvalues --   -0.00186   0.04751   0.04751   0.05387   0.07840
 Alpha virt. eigenvalues --    0.07840   0.16185   0.19655   0.20762   0.20762
 Alpha virt. eigenvalues --    0.25271   0.28220   0.28220   0.32058   0.38382
 Alpha virt. eigenvalues --    0.70859   0.70859   0.76463   0.96128   1.07107
 Alpha virt. eigenvalues --    1.17156   1.17156   1.17674   1.29406   1.29406
 Alpha virt. eigenvalues --    1.36304   1.42653   1.42653   1.47745   1.47745
 Alpha virt. eigenvalues --    1.50474   1.77153   1.77153   2.07473   2.07473
 Alpha virt. eigenvalues --    2.13620   2.18430   2.18430   2.87151   3.02969
 Alpha virt. eigenvalues --    3.02969   3.31158   3.33809   4.03969   4.61604
 Alpha virt. eigenvalues --    4.80567
          Condensed to atoms (all electrons):
               1          2          3
     1  C    4.446165   0.406792   0.406792
     2  O    0.406792   8.068136  -0.104804
     3  O    0.406792  -0.104804   8.068136
 Mulliken charges:
               1
     1  C    0.740250
     2  O   -0.370125
     3  O   -0.370125
 Sum of Mulliken charges =   0.00000
 Mulliken charges with hydrogens summed into heavy atoms:
               1
     1  C    0.740250
     2  O   -0.370125
     3  O   -0.370125
 Electronic spatial extent (au):  <R**2>=            113.9870
 Charge=              0.0000 electrons
 Dipole moment (field-independent basis, Debye):
    X=             -0.0000    Y=              0.0000    Z=             -0.0000  Tot=              0.0000
 Quadrupole moment (field-independent basis, Debye-Ang):
   XX=            -14.8512   YY=            -14.8512   ZZ=            -19.7026
   XY=              0.0000   XZ=              0.0000   YZ=              0.0000
 Traceless Quadrupole moment (field-independent basis, Debye-Ang):
   XX=              1.6171   YY=              1.6171   ZZ=             -3.2342
   XY=              0.0000   XZ=              0.0000   YZ=              0.0000
 Octapole moment (field-independent basis, Debye-Ang**2):
  XXX=             -0.0000  YYY=              0.0000  ZZZ=              0.0000  XYY=             -0.0000
  XXY=             -0.0000  XXZ=              0.0000  XZZ=             -0.0000  YZZ=             -0.0000
  YYZ=             -0.0000  XYZ=              0.0000
 Hexadecapole moment (field-independent basis, Debye-Ang**3):
 XXXX=            -11.7729 YYYY=            -11.7729 ZZZZ=           -104.9086 XXXY=              0.0000
 XXXZ=              0.0000 YYYX=              0.0000 YYYZ=              0.0000 ZZZX=              0.0000
 ZZZY=              0.0000 XXYY=             -3.9243 XXZZ=            -19.2621 YYZZ=            -19.2621
 XXYZ=              0.0000 YYXZ=              0.0000 ZZXY=             -0.0000
 N-N= 5.825125466131D+01 E-N=-5.591685932300D+02  KE= 1.869921551674D+02
 Symmetry AG   KE= 1.010183290701D+02
 Symmetry B1G  KE= 1.174936688017D-33
 Symmetry B2G  KE= 4.797854119985D+00
 Symmetry B3G  KE= 4.797854119985D+00
 Symmetry AU   KE= 1.982841016390D-34
 Symmetry B1U  KE= 6.912804859181D+01
 Symmetry B2U  KE= 3.625034632747D+00
 Symmetry B3U  KE= 3.625034632747D+00
 Unable to Open any file for archive entry.
 1\1\GINC-N5\FOpt\RM062X\6-31+G(d)\C1O2\NIKAMEL99\22-Apr-2022\0\\# m062
 x/6-31+g(d) opt freq\\CO2\\0,1\C,0.05828663,1.07591071,-0.99359467\O,1
 .22108876,1.07591071,-0.99359467\O,-1.1045155,1.07591071,-0.99359467\\
 Version=ES64L-G16RevC.01\State=1-SGG\HF=-188.5160389\RMSD=3.526e-09\RM
 SF=1.250e-05\Dipole=0.,0.,0.\Quadrupole=-2.4045813,1.2022906,1.2022906
 ,0.,0.,0.\PG=D*H [O(C1),C*(O1.O1)]\\@
 The archive entry for this job was punched.


 "PERFECTION IS NOT AN ACCIDENT"
         --  EAGLE ELECTRIC MANUFACTURING CO.,INC. NY
 Job cpu time:       0 days  0 hours  3 minutes 16.5 seconds.
 Elapsed time:       0 days  0 hours  0 minutes  6.2 seconds.
 File lengths (MBytes):  RWF=      6 Int=      0 D2E=      0 Chk=      1 Scr=      1
 Normal termination of Gaussian 16 at Fri Apr 22 11:39:22 2022.
 Link1:  Proceeding to internal job step number  2.
 ---------------------------------------------------------------------
 #N Geom=AllCheck Guess=TCheck SCRF=Check GenChk RM062X/6-31+G(d) Freq
 ---------------------------------------------------------------------
 1/10=4,29=7,30=1,38=1,40=1/1,3;
 2/12=2,40=1/2;
 3/5=1,6=6,7=11,11=2,14=-4,25=1,30=1,70=2,71=2,74=-55,116=1,140=1/1,2,3;
 4/5=101/1;
 5/5=2,38=6,98=1/2;
 8/6=4,10=90,11=11/1;
 11/6=1,8=1,9=11,15=111,16=1/1,2,10;
 10/6=1/2;
 6/7=2,8=2,9=2,10=2,28=1/1;
 7/8=1,10=1,25=1/1,2,3,16;
 1/10=4,30=1/3;
 99//99;
 Structure from the checkpoint file:  "/scratch/global/Gau-25056.chk"
 ---
 CO2
 ---
 Charge =  0 Multiplicity = 1
 Redundant internal coordinates found in file.  (old form).
 C,0,0.05828663,1.07591071,-0.99359467
 O,0,1.22108876,1.07591071,-0.99359467
 O,0,-1.1045155,1.07591071,-0.99359467
 Recover connectivity data from disk.

 GradGradGradGradGradGradGradGradGradGradGradGradGradGradGradGradGradGrad
 Berny optimization.
 Initialization pass.
                           ----------------------------
                           !    Initial Parameters    !
                           ! (Angstroms and Degrees)  !
 --------------------------                            --------------------------
 ! Name  Definition              Value          Derivative Info.                !
 --------------------------------------------------------------------------------
 ! R1    R(1,2)                  1.1628         calculate D2E/DX2 analytically  !
 ! R2    R(1,3)                  1.1628         calculate D2E/DX2 analytically  !
 ! A1    L(2,1,3,-2,-1)        180.0            calculate D2E/DX2 analytically  !
 ! A2    L(2,1,3,-3,-2)        180.0            calculate D2E/DX2 analytically  !
 --------------------------------------------------------------------------------
 Trust Radius=3.00D-01 FncErr=1.00D-07 GrdErr=1.00D-07 EigMax=2.50D+02 EigMin=1.00D-04
 Number of steps in this run=      2 maximum allowed number of steps=      2.
 GradGradGradGradGradGradGradGradGradGradGradGradGradGradGradGradGradGrad

                          Input orientation:                          
 ---------------------------------------------------------------------
 Center     Atomic      Atomic             Coordinates (Angstroms)
 Number     Number       Type             X           Y           Z
 ---------------------------------------------------------------------
      1          6           0        0.058287    1.075911   -0.993595
      2          8           0        1.221089    1.075911   -0.993595
      3          8           0       -1.104516    1.075911   -0.993595
 ---------------------------------------------------------------------
                    Distance matrix (angstroms):
                    1          2          3
     1  C    0.000000
     2  O    1.162802   0.000000
     3  O    1.162802   2.325604   0.000000
 Stoichiometry    CO2
 Framework group  D*H[O(C),C*(O.O)]
 Deg. of freedom     1
 Full point group                 D*H     NOp   8
 Largest Abelian subgroup         D2H     NOp   8
 Largest concise Abelian subgroup C2      NOp   2
                         Standard orientation:                         
 ---------------------------------------------------------------------
 Center     Atomic      Atomic             Coordinates (Angstroms)
 Number     Number       Type             X           Y           Z
 ---------------------------------------------------------------------
      1          6           0        0.000000    0.000000    0.000000
      2          8           0        0.000000    0.000000    1.162802
      3          8           0        0.000000    0.000000   -1.162802
 ---------------------------------------------------------------------
 Rotational constants (GHZ):           0.0000000          11.6840563          11.6840563
 Standard basis: 6-31+G(d) (6D, 7F)
 There are    17 symmetry adapted cartesian basis functions of AG  symmetry.
 There are     2 symmetry adapted cartesian basis functions of B1G symmetry.
 There are     5 symmetry adapted cartesian basis functions of B2G symmetry.
 There are     5 symmetry adapted cartesian basis functions of B3G symmetry.
 There are     1 symmetry adapted cartesian basis functions of AU  symmetry.
 There are    13 symmetry adapted cartesian basis functions of B1U symmetry.
 There are     7 symmetry adapted cartesian basis functions of B2U symmetry.
 There are     7 symmetry adapted cartesian basis functions of B3U symmetry.
 There are    17 symmetry adapted basis functions of AG  symmetry.
 There are     2 symmetry adapted basis functions of B1G symmetry.
 There are     5 symmetry adapted basis functions of B2G symmetry.
 There are     5 symmetry adapted basis functions of B3G symmetry.
 There are     1 symmetry adapted basis functions of AU  symmetry.
 There are    13 symmetry adapted basis functions of B1U symmetry.
 There are     7 symmetry adapted basis functions of B2U symmetry.
 There are     7 symmetry adapted basis functions of B3U symmetry.
    57 basis functions,    96 primitive gaussians,    57 cartesian basis functions
    11 alpha electrons       11 beta electrons
       nuclear repulsion energy        58.2512546613 Hartrees.
 NAtoms=    3 NActive=    3 NUniq=    2 SFac= 2.25D+00 NAtFMM=   60 NAOKFM=F Big=F
 Integral buffers will be    131072 words long.
 Raffenetti 2 integral format.
 Two-electron integral symmetry is turned on.
 One-electron integrals computed using PRISM.
 NBasis=    57 RedAO= T EigKep=  1.01D-03  NBF=    17     2     5     5     1    13     7     7
 NBsUse=    57 1.00D-06 EigRej= -1.00D+00 NBFU=    17     2     5     5     1    13     7     7
 Initial guess from the checkpoint file:  "/scratch/global/Gau-25056.chk"
 B after Tr=    -0.000000    0.000000    0.000000
         Rot=    1.000000    0.000000    0.000000    0.000000 Ang=   0.00 deg.
 Initial guess orbital symmetries:
       Occupied  (SGU) (SGG) (SGG) (SGG) (SGU) (SGG) (SGU) (PIU)
                 (PIU) (PIG) (PIG)
       Virtual   (SGG) (PIU) (PIU) (SGU) (PIU) (PIU) (SGG) (SGG)
                 (PIG) (PIG) (SGU) (PIU) (PIU) (SGU) (SGG) (PIU)
                 (PIU) (SGU) (SGU) (SGG) (PIG) (PIG) (SGG) (PIU)
                 (PIU) (SGU) (DLTG) (DLTG) (PIG) (PIG) (SGG) (DLTU)
                 (DLTU) (DLTG) (DLTG) (SGU) (PIU) (PIU) (SGG) (PIG)
                 (PIG) (SGU) (SGG) (SGG) (SGG) (SGU)
 Keep R1 ints in memory in symmetry-blocked form, NReq=36639891.
 Requested convergence on RMS density matrix=1.00D-08 within 128 cycles.
 Requested convergence on MAX density matrix=1.00D-06.
 Requested convergence on             energy=1.00D-06.
 No special actions if energy rises.
 SCF Done:  E(RM062X) =  -188.516038939     A.U. after    1 cycles
            NFock=  1  Conv=0.73D-09     -V/T= 2.0081
 DoSCS=F DFT=T ScalE2(SS,OS)=  1.000000  1.000000
 Range of M.O.s used for correlation:     1    57
 NBasis=    57 NAE=    11 NBE=    11 NFC=     0 NFV=     0
 NROrb=     57 NOA=    11 NOB=    11 NVA=    46 NVB=    46

 **** Warning!!: The largest alpha MO coefficient is  0.11400816D+02

 Symmetrizing basis deriv contribution to polar:
 IMax=3 JMax=2 DiffMx= 0.00D+00
 G2DrvN: will do     4 centers at a time, making    1 passes.
 Calling FoFCou, ICntrl=  3107 FMM=F I1Cent=   0 AccDes= 0.00D+00.
 End of G2Drv F.D. properties file   721 does not exist.
 End of G2Drv F.D. properties file   722 does not exist.
 End of G2Drv F.D. properties file   788 does not exist.
          IDoAtm=111
          Differentiating once with respect to electric field.
                with respect to dipole field.
          Differentiating once with respect to nuclear coordinates.
 Keep R1 ints in memory in symmetry-blocked form, NReq=36502456.
          There are     9 degrees of freedom in the 1st order CPHF.  IDoFFX=4 NUNeed=     9.
      9 vectors produced by pass  0 Test12= 5.62D-15 1.11D-08 XBig12= 1.58D+01 2.55D+00.
 AX will form     9 AO Fock derivatives at one time.
      9 vectors produced by pass  1 Test12= 5.62D-15 1.11D-08 XBig12= 5.61D+00 8.97D-01.
      9 vectors produced by pass  2 Test12= 5.62D-15 1.11D-08 XBig12= 4.51D-02 8.71D-02.
      9 vectors produced by pass  3 Test12= 5.62D-15 1.11D-08 XBig12= 2.71D-04 6.70D-03.
      9 vectors produced by pass  4 Test12= 5.62D-15 1.11D-08 XBig12= 1.09D-06 3.25D-04.
      9 vectors produced by pass  5 Test12= 5.62D-15 1.11D-08 XBig12= 1.03D-08 3.25D-05.
      7 vectors produced by pass  6 Test12= 5.62D-15 1.11D-08 XBig12= 1.51D-10 4.96D-06.
      2 vectors produced by pass  7 Test12= 5.62D-15 1.11D-08 XBig12= 4.95D-13 2.23D-07.
      1 vectors produced by pass  8 Test12= 5.62D-15 1.11D-08 XBig12= 1.10D-15 1.34D-08.
 InvSVY:  IOpt=1 It=  1 EMax= 4.55D-16
 Solved reduced A of dimension    64 with     9 vectors.
 Isotropic polarizability for W=    0.000000       14.48 Bohr**3.
 End of Minotr F.D. properties file   721 does not exist.
 End of Minotr F.D. properties file   722 does not exist.
 End of Minotr F.D. properties file   788 does not exist.

 **********************************************************************

            Population analysis using the SCF Density.

 **********************************************************************

 Orbital symmetries:
       Occupied  (SGU) (SGG) (SGG) (SGG) (SGU) (SGG) (SGU) (PIU)
                 (PIU) (PIG) (PIG)
       Virtual   (SGG) (PIU) (PIU) (SGU) (PIU) (PIU) (SGG) (SGG)
                 (PIG) (PIG) (SGU) (PIU) (PIU) (SGU) (SGG) (PIU)
                 (PIU) (SGU) (SGU) (SGG) (PIG) (PIG) (SGG) (PIU)
                 (PIU) (SGU) (DLTG) (DLTG) (PIG) (PIG) (SGG) (DLTU)
                 (DLTU) (DLTG) (DLTG) (SGU) (PIU) (PIU) (SGG) (PIG)
                 (PIG) (SGU) (SGG) (SGG) (SGG) (SGU)
 The electronic state is 1-SGG.
 Alpha  occ. eigenvalues --  -19.73957 -19.73956 -10.75894  -1.30165  -1.25118
 Alpha  occ. eigenvalues --   -0.66469  -0.61234  -0.61099  -0.61099  -0.45117
 Alpha  occ. eigenvalues --   -0.45117
 Alpha virt. eigenvalues --   -0.00186   0.04751   0.04751   0.05387   0.07840
 Alpha virt. eigenvalues --    0.07840   0.16185   0.19655   0.20762   0.20762
 Alpha virt. eigenvalues --    0.25271   0.28220   0.28220   0.32058   0.38382
 Alpha virt. eigenvalues --    0.70859   0.70859   0.76463   0.96128   1.07107
 Alpha virt. eigenvalues --    1.17156   1.17156   1.17674   1.29406   1.29406
 Alpha virt. eigenvalues --    1.36304   1.42653   1.42653   1.47745   1.47745
 Alpha virt. eigenvalues --    1.50474   1.77153   1.77153   2.07473   2.07473
 Alpha virt. eigenvalues --    2.13620   2.18430   2.18430   2.87151   3.02969
 Alpha virt. eigenvalues --    3.02969   3.31158   3.33809   4.03969   4.61604
 Alpha virt. eigenvalues --    4.80567
          Condensed to atoms (all electrons):
               1          2          3
     1  C    4.446166   0.406792   0.406792
     2  O    0.406792   8.068136  -0.104804
     3  O    0.406792  -0.104804   8.068136
 Mulliken charges:
               1
     1  C    0.740250
     2  O   -0.370125
     3  O   -0.370125
 Sum of Mulliken charges =  -0.00000
 Mulliken charges with hydrogens summed into heavy atoms:
               1
     1  C    0.740250
     2  O   -0.370125
     3  O   -0.370125
 APT charges:
               1
     1  C    1.275242
     2  O   -0.637621
     3  O   -0.637621
 Sum of APT charges =  -0.00000
 APT charges with hydrogens summed into heavy atoms:
               1
     1  C    1.275242
     2  O   -0.637621
     3  O   -0.637621
 Electronic spatial extent (au):  <R**2>=            113.9870
 Charge=              0.0000 electrons
 Dipole moment (field-independent basis, Debye):
    X=             -0.0000    Y=              0.0000    Z=              0.0000  Tot=              0.0000
 Quadrupole moment (field-independent basis, Debye-Ang):
   XX=            -14.8512   YY=            -14.8512   ZZ=            -19.7026
   XY=              0.0000   XZ=              0.0000   YZ=              0.0000
 Traceless Quadrupole moment (field-independent basis, Debye-Ang):
   XX=              1.6171   YY=              1.6171   ZZ=             -3.2342
   XY=              0.0000   XZ=              0.0000   YZ=              0.0000
 Octapole moment (field-independent basis, Debye-Ang**2):
  XXX=             -0.0000  YYY=              0.0000  ZZZ=              0.0000  XYY=             -0.0000
  XXY=             -0.0000  XXZ=             -0.0000  XZZ=             -0.0000  YZZ=             -0.0000
  YYZ=             -0.0000  XYZ=              0.0000
 Hexadecapole moment (field-independent basis, Debye-Ang**3):
 XXXX=            -11.7729 YYYY=            -11.7729 ZZZZ=           -104.9086 XXXY=              0.0000
 XXXZ=              0.0000 YYYX=              0.0000 YYYZ=              0.0000 ZZZX=              0.0000
 ZZZY=              0.0000 XXYY=             -3.9243 XXZZ=            -19.2621 YYZZ=            -19.2621
 XXYZ=              0.0000 YYXZ=              0.0000 ZZXY=             -0.0000
 N-N= 5.825125466131D+01 E-N=-5.591685928900D+02  KE= 1.869921549607D+02
 Symmetry AG   KE= 1.010183290025D+02
 Symmetry B1G  KE= 1.174936698420D-33
 Symmetry B2G  KE= 4.797854106395D+00
 Symmetry B3G  KE= 4.797854106395D+00
 Symmetry AU   KE= 1.982841051123D-34
 Symmetry B1U  KE= 6.912804850815D+01
 Symmetry B2U  KE= 3.625034618633D+00
 Symmetry B3U  KE= 3.625034618633D+00
  Exact polarizability:       8.970       0.000       8.970      -0.000       0.000      25.514
 Approx polarizability:       9.702      -0.000       9.702      -0.000      -0.000      36.826
 Calling FoFJK, ICntrl=    100127 FMM=F ISym2X=1 I1Cent= 0 IOpClX= 0 NMat=1 NMatS=1 NMatT=0.
 Full mass-weighted force constant matrix:
 Low frequencies ---  -10.1095  -10.1095   -0.0008    0.0012    0.0013  669.8954
 Low frequencies ---  669.8954 1411.2316 2460.4467
 Diagonal vibrational polarizability:
        2.2907383       2.2907383       3.5038294
 Harmonic frequencies (cm**-1), IR intensities (KM/Mole), Raman scattering
 activities (A**4/AMU), depolarization ratios for plane and unpolarized
 incident light, reduced masses (AMU), force constants (mDyne/A),
 and normal coordinates:
                      1                      2                      3
                     PIU                    PIU                    SGG
 Frequencies --    669.8954               669.8954              1411.2316
 Red. masses --     12.8774                12.8774                15.9949
 Frc consts  --      3.4048                 3.4048                18.7685
 IR Inten    --     38.1994                38.1994                 0.0000
  Atom  AN      X      Y      Z        X      Y      Z        X      Y      Z
     1   6     0.88   0.00  -0.00    -0.00   0.88  -0.00     0.00  -0.00   0.00
     2   8    -0.33  -0.00   0.00     0.00  -0.33   0.00    -0.00   0.00   0.71
     3   8    -0.33  -0.00   0.00     0.00  -0.33  -0.00    -0.00   0.00  -0.71
                      4
                     SGU
 Frequencies --   2460.4467
 Red. masses --     12.8774
 Frc consts  --     45.9309
 IR Inten    --    788.2024
  Atom  AN      X      Y      Z
     1   6     0.00   0.00   0.88
     2   8    -0.00  -0.00  -0.33
     3   8    -0.00  -0.00  -0.33

 -------------------
 - Thermochemistry -
 -------------------
 Temperature   298.150 Kelvin.  Pressure   1.00000 Atm.
 Atom     1 has atomic number  6 and mass  12.00000
 Atom     2 has atomic number  8 and mass  15.99491
 Atom     3 has atomic number  8 and mass  15.99491
 Molecular mass:    43.98983 amu.
 Principal axes and moments of inertia in atomic units:
                           1         2         3
     Eigenvalues --     0.00000 154.46187 154.46187
           X           -0.00000   1.00000  -0.00000
           Y            0.00000   0.00000   1.00000
           Z            1.00000   0.00000  -0.00000
 This molecule is a prolate symmetric top.
 Rotational symmetry number  2.
 Rotational temperature (Kelvin)      0.56075
 Rotational constant (GHZ):          11.684056
 Zero-point vibrational energy      31171.5 (Joules/Mol)
                                    7.45017 (Kcal/Mol)
 Vibrational temperatures:    963.83   963.83  2030.45  3540.03
          (Kelvin)
 
 Zero-point correction=                           0.011873 (Hartree/Particle)
 Thermal correction to Energy=                    0.014491
 Thermal correction to Enthalpy=                  0.015435
 Thermal correction to Gibbs Free Energy=        -0.008824
 Sum of electronic and zero-point Energies=           -188.504166
 Sum of electronic and thermal Energies=              -188.501548
 Sum of electronic and thermal Enthalpies=            -188.500604
 Sum of electronic and thermal Free Energies=         -188.524862
 
                     E (Thermal)             CV                S
                      KCal/Mol        Cal/Mol-Kelvin    Cal/Mol-Kelvin
 Total                    9.093              6.848             51.057
 Electronic               0.000              0.000              0.000
 Translational            0.889              2.981             37.270
 Rotational               0.592              1.987             13.082
 Vibrational              7.612              1.880              0.705
                       Q            Log10(Q)             Ln(Q)
 Total Bot       0.114433D+05          4.058551          9.345160
 Total V=0       0.330799D+10          9.519564         21.919605
 Vib (Bot)       0.375345D-05         -5.425569        -12.492835
 Vib (V=0)       0.108503D+01          0.035443          0.081610
 Electronic      0.100000D+01          0.000000          0.000000
 Translational   0.114679D+08          7.059482         16.255059
 Rotational      0.265851D+03          2.424638          5.582936
 ***** Axes restored to original set *****
 -------------------------------------------------------------------
 Center     Atomic                   Forces (Hartrees/Bohr)
 Number     Number              X              Y              Z
 -------------------------------------------------------------------
      1        6          -0.000000000    0.000000000   -0.000000000
      2        8          -0.000026512    0.000000000   -0.000000000
      3        8           0.000026512   -0.000000000    0.000000000
 -------------------------------------------------------------------
 Cartesian Forces:  Max     0.000026512 RMS     0.000012498
 FormGI is forming the generalized inverse of G from B-inverse, IUseBI=4.

 GradGradGradGradGradGradGradGradGradGradGradGradGradGradGradGradGradGrad
 Berny optimization.
 Internal  Forces:  Max     0.000026512 RMS     0.000018747
 Search for a local minimum.
 Step number   1 out of a maximum of    2
 All quantities printed in internal units (Hartrees-Bohrs-Radians)
 Second derivative matrix not updated -- analytic derivatives used.
 The second derivative matrix:
                          R1        R2        A1        A2
           R1           1.10256
           R2           0.10295   1.10256
           A1           0.00000  -0.00000   0.17886
           A2           0.00000  -0.00000   0.00000   0.17886
 ITU=  0
     Eigenvalues ---    0.17886   0.17886   0.99961   1.20551
 Angle between quadratic step and forces=   0.00 degrees.
 Linear search not attempted -- first point.
 Iteration  1 RMS(Cart)=  0.00001555 RMS(Int)=  0.00000000
 Iteration  2 RMS(Cart)=  0.00000000 RMS(Int)=  0.00000000
 ClnCor:  largest displacement from symmetrization is 3.64D-14 for atom     1.
 Variable       Old X    -DE/DX   Delta X   Delta X   Delta X     New X
                                 (Linear)    (Quad)   (Total)
    R1        2.19738  -0.00003   0.00000  -0.00002  -0.00002   2.19736
    R2        2.19738  -0.00003   0.00000  -0.00002  -0.00002   2.19736
    A1        3.14159  -0.00000   0.00000  -0.00000   0.00000   3.14159
    A2        3.14159  -0.00000   0.00000  -0.00000   0.00000   3.14159
         Item               Value     Threshold  Converged?
 Maximum Force            0.000027     0.000450     YES
 RMS     Force            0.000019     0.000300     YES
 Maximum Displacement     0.000022     0.001800     YES
 RMS     Displacement     0.000016     0.001200     YES
 Predicted change in Energy=-5.830624D-10
 Optimization completed.
    -- Stationary point found.
                           ----------------------------
                           !   Optimized Parameters   !
                           ! (Angstroms and Degrees)  !
 --------------------------                            --------------------------
 ! Name  Definition              Value          Derivative Info.                !
 --------------------------------------------------------------------------------
 ! R1    R(1,2)                  1.1628         -DE/DX =    0.0                 !
 ! R2    R(1,3)                  1.1628         -DE/DX =    0.0                 !
 ! A1    L(2,1,3,-2,-1)        180.0            -DE/DX =    0.0                 !
 ! A2    L(2,1,3,-3,-2)        180.0            -DE/DX =    0.0                 !
 --------------------------------------------------------------------------------
 GradGradGradGradGradGradGradGradGradGradGradGradGradGradGradGradGradGrad

 Dipole is zero, so no output in dipole orientation.

 ----------------------------------------------------------------------

 Electric dipole moment (input orientation):
 (Debye = 10**-18 statcoulomb cm , SI units = C m)
                  (au)            (Debye)         (10**-30 SI)
   Tot        0.000000D+00      0.000000D+00      0.000000D+00
   x          0.000000D+00      0.000000D+00      0.000000D+00
   y          0.000000D+00      0.000000D+00      0.000000D+00
   z          0.000000D+00      0.000000D+00      0.000000D+00

 Dipole polarizability, Alpha (input orientation).
 (esu units = cm**3 , SI units = C**2 m**2 J**-1)
 Alpha(0;0):
               (au)            (10**-24 esu)      (10**-40 SI)
   iso        0.144846D+02      0.214640D+01      0.238819D+01
   aniso      0.165438D+02      0.245154D+01      0.272771D+01
   xx         0.255138D+02      0.378076D+01      0.420666D+01
   yx         0.000000D+00      0.000000D+00      0.000000D+00
   yy         0.896999D+01      0.132921D+01      0.147895D+01
   zx         0.000000D+00      0.000000D+00      0.000000D+00
   zy         0.000000D+00      0.000000D+00      0.000000D+00
   zz         0.896999D+01      0.132921D+01      0.147895D+01

 ----------------------------------------------------------------------
 Unable to Open any file for archive entry.
 1\1\GINC-N5\Freq\RM062X\6-31+G(d)\C1O2\NIKAMEL99\22-Apr-2022\0\\#N Geo
 m=AllCheck Guess=TCheck SCRF=Check GenChk RM062X/6-31+G(d) Freq\\CO2\\
 0,1\C,0.05828663,1.07591071,-0.99359467\O,1.22108876,1.07591071,-0.993
 59467\O,-1.1045155,1.07591071,-0.99359467\\Version=ES64L-G16RevC.01\St
 ate=1-SGG\HF=-188.5160389\RMSD=7.291e-10\RMSF=1.250e-05\ZeroPoint=0.01
 18726\Thermal=0.014491\ETot=-188.501548\HTot=-188.5006038\GTot=-188.52
 48625\Dipole=0.,0.,0.\DipoleDeriv=2.6562179,0.,0.,0.,0.5847537,0.,0.,0
 .,0.5847537,-1.328109,0.,0.,0.,-0.2923768,0.,0.,0.,-0.2923768,-1.32810
 9,0.,0.,0.,-0.2923768,0.,0.,0.,-0.2923768\Polar=25.5138196,0.,8.969985
 2,0.,0.,8.9699852\Quadrupole=-2.4045812,1.2022906,1.2022906,0.,0.,0.\P
 G=D*H [O(C1),C*(O1.O1)]\NImag=0\\1.99921857,0.,0.14819935,0.,0.,0.1481
 9935,-0.99960928,0.,0.,1.10255847,0.,-0.07409967,0.,0.,0.03701891,0.,0
 .,-0.07409967,0.,0.,0.03701891,-0.99960928,0.,0.,-0.10294918,0.,0.,1.1
 0255847,0.,-0.07409967,0.,0.,0.03708077,0.,0.,0.03701891,0.,0.,-0.0740
 9967,0.,0.,0.03708077,0.,0.,0.03701891\\0.,0.,0.,0.00002651,0.,0.,-0.0
 0002651,0.,0.\\\@
 The archive entry for this job was punched.


 The number of Unix installations has grown to 10,
  with more expected.
                  -- The Unix Programmer's Manual,
                     2nd Edition, June, 1972.
 Job cpu time:       0 days  0 hours  1 minutes 47.3 seconds.
 Elapsed time:       0 days  0 hours  0 minutes  3.3 seconds.
 File lengths (MBytes):  RWF=      6 Int=      0 D2E=      0 Chk=      1 Scr=      1
 Normal termination of Gaussian 16 at Fri Apr 22 11:39:30 2022.
